 Entering Gaussian System
 *********************************************
 Gaussian 98:
 frequency output generated by the xtb code
 *********************************************
                         Standard orientation:
 --------------------------------------------------------------------
  Center     Atomic     Atomic              Coordinates (Angstroms)
  Number     Number      Type              X           Y           Z
 --------------------------------------------------------------------
    1          6             0       -0.766653    1.255294   -0.261970
    2          7             0       -1.332297    2.509805   -0.247991
    3          7             0       -2.539698    2.611913    0.185853
    4          6             0       -3.154535    3.826037    0.117079
    5          6             0       -2.652541    4.968206   -0.541924
    6          8             0       -1.443307    4.961367   -1.163151
    7          6             0       -3.424415    6.127523   -0.583024
    8          8             0       -2.966152    7.236402   -1.224006
    9          6             0       -4.666774    6.149022    0.039081
   10          6             0       -5.184897    5.042479    0.698747
   11          6             0       -6.523783    5.074858    1.367538
   12          6             0       -4.429197    3.876159    0.733692
   13          8             0       -4.889678    2.773959    1.361390
   14          6             0       -1.489365    0.062064   -0.114931
   15          6             0       -0.838895   -1.147295   -0.211878
   16          8             0       -1.481084   -2.340167   -0.092587
   17          6             0        0.538403   -1.180051   -0.447548
   18          6             0        1.268003   -0.014166   -0.586319
   19          8             0        2.604058   -0.017673   -0.812199
   20          6             0        0.618687    1.227742   -0.495322
   21          8             0        1.341292    2.362759   -0.609316
   22          1             0       -1.096998    4.042629   -1.066385
   23          1             0       -2.096399    7.025698   -1.591599
   24          1             0       -5.233331    7.065496   -0.006070
   25          1             0       -7.143972    4.259646    0.999842
   26          1             0       -6.407420    4.935700    2.441245
   27          1             0       -7.024894    6.020166    1.183554
   28          1             0       -4.205837    2.090616    1.248062
   29          1             0       -2.555110    0.119420    0.050821
   30          1             0       -2.421249   -2.191712    0.062980
   31          1             0        1.023020   -2.142130   -0.520386
   32          1             0        2.924931   -0.926531   -0.855476
   33          1             0        0.747174    3.117913   -0.485483
 --------------------------------------------------------------------
     1 basis functions        1 primitive gaussians
     1 alpha electrons        1 beta electrons
 
 Harmonic frequencies (cm**-1), IR intensities (km*mol⁻¹),
 Raman scattering activities (A**4/amu), Raman depolarization ratios,
 reduced masses (AMU), force constants (mDyne/A) and normal coordinates:
                      1                      2                      3
                        a                      a                      a 
 Frequencies --    20.2918                22.7435                38.6449
 Red. masses --     9.6053                 5.5668                12.4936
 Frc consts  --     0.0000                 0.0000                 0.0000
 IR Inten    --     0.4469                 0.2912                 0.7078
 Raman Activ --     0.0000                 0.0000                 0.0000
 Depolar     --     0.0000                 0.0000                 0.0000
 Atom AN      X      Y      Z        X      Y      Z        X      Y      Z
   1   6    -0.00  -0.00  -0.01    -0.00  -0.00   0.00    -0.06  -0.04  -0.18
   2   7    -0.01  -0.00  -0.05    -0.00  -0.00   0.01    -0.10  -0.06  -0.29
   3   7    -0.02  -0.01  -0.06     0.00   0.00   0.03    -0.09  -0.06  -0.26
   4   6    -0.01  -0.01  -0.04     0.00  -0.00   0.01    -0.06  -0.04  -0.17
   5   6     0.03   0.03   0.06    -0.03  -0.03  -0.07    -0.05  -0.01  -0.11
   6   8     0.06   0.06   0.13    -0.08  -0.06  -0.16    -0.12  -0.02  -0.24
   7   6     0.05   0.05   0.11    -0.03  -0.03  -0.08     0.03   0.05   0.08
   8   8     0.11   0.10   0.25    -0.08  -0.07  -0.18     0.05   0.11   0.19
   9   6     0.02   0.02   0.06     0.01   0.00  -0.00     0.08   0.07   0.20
  10   6    -0.03  -0.02  -0.05     0.04   0.03   0.07     0.07   0.03   0.13
  11   6    -0.08  -0.08  -0.15     0.06   0.03   0.11     0.14   0.07   0.27
  12   6    -0.04  -0.03  -0.10     0.03   0.03   0.07    -0.01  -0.02  -0.07
  13   8    -0.10  -0.08  -0.22     0.07   0.07   0.17    -0.03  -0.07  -0.17
  14   6     0.02   0.00   0.13    -0.01  -0.01  -0.09    -0.03  -0.05  -0.15
  15   6     0.03   0.00   0.18    -0.01  -0.00  -0.11     0.04  -0.04   0.03
  16   8     0.06   0.00   0.38    -0.02  -0.01  -0.24     0.09  -0.06   0.08
  17   6     0.01  -0.00   0.07     0.00   0.01  -0.03     0.06   0.00   0.19
  18   6    -0.01  -0.01  -0.07     0.01   0.01   0.07     0.03   0.02   0.16
  19   8    -0.04  -0.01  -0.21     0.03   0.02   0.18     0.07   0.06   0.37
  20   6    -0.02  -0.01  -0.11     0.01   0.01   0.08    -0.04  -0.00  -0.05
  21   8    -0.04  -0.01  -0.29     0.01   0.02   0.19    -0.09   0.02  -0.10
  22   1     0.01   0.01   0.02    -0.01  -0.01  -0.03    -0.04  -0.01  -0.08
  23   1     0.03   0.03   0.07    -0.03  -0.02  -0.06     0.00   0.02   0.02
  24   1     0.01   0.01   0.03     0.00   0.00   0.00     0.04   0.03   0.10
  25   1    -0.12   0.17  -0.30    -0.15   0.29  -0.31     0.04  -0.00   0.13
  26   1    -0.07  -0.36  -0.08    -0.01  -0.46  -0.03     0.08   0.06   0.08
  27   1     0.11   0.10   0.22     0.21   0.18   0.41     0.02   0.01   0.06
  28   1    -0.02  -0.02  -0.05     0.01   0.02   0.05    -0.02  -0.02  -0.07
  29   1     0.01   0.00   0.06    -0.01  -0.00  -0.04    -0.01  -0.02  -0.07
  30   1     0.02   0.00   0.11    -0.01  -0.00  -0.08     0.01  -0.02  -0.01
  31   1     0.00  -0.00   0.03     0.00   0.00  -0.01     0.03   0.00   0.10
  32   1    -0.01  -0.00  -0.04     0.01   0.01   0.04     0.03   0.02   0.13
  33   1    -0.01  -0.00  -0.07    -0.00   0.00   0.04    -0.03   0.00  -0.06
                      4                      5                      6
                        a                      a                      a 
 Frequencies --    45.5537                93.1778               116.7872
 Red. masses --    13.2815                13.1957                13.6154
 Frc consts  --     0.0000                 0.0000                 0.0000
 IR Inten    --     0.9874                 0.3123                 1.4167
 Raman Activ --     0.0000                 0.0000                 0.0000
 Depolar     --     0.0000                 0.0000                 0.0000
 Atom AN      X      Y      Z        X      Y      Z        X      Y      Z
   1   6    -0.08  -0.08   0.08    -0.06  -0.03  -0.17    -0.02  -0.03   0.01
   2   7    -0.16  -0.13   0.11    -0.07  -0.04  -0.11    -0.02  -0.02  -0.07
   3   7    -0.18  -0.11   0.07     0.00  -0.00   0.10     0.02   0.03   0.01
   4   6    -0.09  -0.06   0.03     0.03   0.02   0.15     0.02   0.02  -0.04
   5   6     0.01  -0.11   0.01     0.04   0.00   0.12    -0.05  -0.01  -0.14
   6   8     0.01  -0.25   0.02     0.08  -0.01   0.21    -0.21  -0.09  -0.47
   7   6     0.12  -0.04  -0.01     0.03  -0.01   0.03     0.04   0.06   0.09
   8   8     0.27  -0.11  -0.02     0.07  -0.04   0.01     0.14   0.18   0.37
   9   6     0.12   0.08  -0.02    -0.04  -0.03  -0.11     0.02   0.02   0.04
  10   6     0.01   0.13  -0.01    -0.03   0.00  -0.05    -0.02  -0.03  -0.06
  11   6     0.01   0.27  -0.02    -0.13  -0.02  -0.24    -0.14  -0.15  -0.30
  12   6    -0.10   0.06   0.01     0.04   0.06   0.16     0.07   0.03   0.06
  13   8    -0.25   0.13   0.01     0.09   0.15   0.36     0.23   0.11   0.30
  14   6     0.02  -0.15   0.06    -0.03  -0.05  -0.15    -0.01  -0.03   0.01
  15   6     0.13  -0.09  -0.02     0.01  -0.03  -0.06     0.00  -0.02   0.01
  16   8     0.29  -0.17  -0.05     0.05  -0.06  -0.11     0.03  -0.04   0.07
  17   6     0.12   0.04  -0.10     0.04   0.00   0.11    -0.01  -0.01  -0.04
  18   6     0.02   0.11  -0.07     0.01   0.02   0.07    -0.01  -0.01  -0.02
  19   8     0.00   0.28  -0.17     0.05   0.07   0.33    -0.03   0.00  -0.11
  20   6    -0.09   0.05   0.03    -0.07  -0.00  -0.19    -0.01  -0.01   0.06
  21   8    -0.21   0.13   0.08    -0.12   0.00  -0.46    -0.03   0.01   0.24
  22   1    -0.02  -0.07   0.01     0.00  -0.01   0.04    -0.05  -0.02  -0.13
  23   1     0.06  -0.06  -0.00     0.03  -0.01   0.03     0.02   0.04   0.06
  24   1     0.06   0.04  -0.01    -0.02  -0.02  -0.07     0.01   0.01   0.02
  25   1    -0.01   0.09   0.01    -0.02  -0.01  -0.09     0.01  -0.07  -0.11
  26   1    -0.00   0.09  -0.00    -0.08  -0.00  -0.06    -0.10  -0.02  -0.08
  27   1     0.02   0.09  -0.02    -0.04  -0.01  -0.09    -0.06  -0.06  -0.13
  28   1    -0.08   0.01   0.01     0.02   0.04   0.11     0.07   0.03   0.08
  29   1     0.01  -0.07   0.03    -0.01  -0.02  -0.05    -0.00  -0.01  -0.00
  30   1     0.07  -0.07   0.00     0.01  -0.02  -0.06     0.01  -0.01   0.02
  31   1     0.06   0.03  -0.05     0.03   0.00   0.08    -0.00  -0.00  -0.02
  32   1     0.02   0.08  -0.06     0.03   0.02   0.13    -0.01   0.00  -0.04
  33   1    -0.07   0.02   0.05    -0.03   0.00  -0.14    -0.02  -0.01   0.06
                      7                      8                      9
                        a                      a                      a 
 Frequencies --   133.5263               152.6996               173.2731
 Red. masses --    13.9529                13.2645                12.1312
 Frc consts  --     0.0000                 0.0000                 0.0000
 IR Inten    --     0.8333                 0.2460                 3.8974
 Raman Activ --     0.0000                 0.0000                 0.0000
 Depolar     --     0.0000                 0.0000                 0.0000
 Atom AN      X      Y      Z        X      Y      Z        X      Y      Z
   1   6     0.13   0.12   0.18     0.05   0.13  -0.27     0.05   0.01   0.13
   2   7     0.06   0.09   0.18    -0.05   0.08  -0.17    -0.01  -0.01   0.01
   3   7     0.04  -0.03   0.16    -0.04  -0.12  -0.08    -0.09  -0.06  -0.18
   4   6    -0.05  -0.08   0.04    -0.09  -0.13   0.02    -0.15  -0.09  -0.26
   5   6    -0.06  -0.13  -0.05    -0.02  -0.15   0.04    -0.10  -0.04  -0.15
   6   8    -0.18  -0.27  -0.27    -0.00  -0.19   0.12     0.06   0.07   0.17
   7   6     0.04  -0.07   0.05     0.04  -0.12   0.00    -0.09  -0.03  -0.13
   8   8     0.16  -0.10   0.10     0.21  -0.20   0.04     0.13   0.14   0.32
   9   6     0.08   0.00   0.11     0.02  -0.08  -0.05    -0.18  -0.09  -0.31
  10   6    -0.01  -0.01   0.02    -0.02  -0.04  -0.01    -0.12  -0.05  -0.20
  11   6    -0.04   0.04  -0.04    -0.01   0.07   0.00     0.10   0.10   0.22
  12   6    -0.08  -0.06  -0.01    -0.07  -0.07   0.05    -0.09  -0.04  -0.14
  13   8    -0.20  -0.07  -0.09    -0.12  -0.00   0.19     0.10   0.13   0.29
  14   6     0.08   0.15   0.21    -0.02   0.17  -0.32     0.06   0.00   0.17
  15   6    -0.03   0.12   0.01    -0.05   0.14  -0.04     0.03  -0.00   0.04
  16   8    -0.19   0.20  -0.27    -0.12   0.24   0.32    -0.02   0.00  -0.15
  17   6    -0.03   0.06   0.03    -0.05   0.09  -0.01     0.02  -0.02   0.02
  18   6     0.03   0.03   0.06    -0.00   0.05  -0.07     0.03  -0.02   0.04
  19   8     0.05  -0.07   0.11     0.00  -0.03  -0.06     0.02  -0.04  -0.04
  20   6     0.09   0.07  -0.01     0.08   0.10  -0.08     0.04  -0.01   0.06
  21   8     0.14   0.02  -0.39     0.24   0.06   0.23     0.08  -0.05  -0.09
  22   1    -0.04  -0.06  -0.03    -0.01  -0.06   0.05     0.02   0.02   0.06
  23   1     0.03  -0.05   0.00     0.05  -0.08   0.03     0.06   0.06   0.13
  24   1     0.04   0.02   0.06     0.01  -0.02  -0.02    -0.05  -0.03  -0.09
  25   1    -0.01   0.01  -0.01    -0.02   0.03   0.01    -0.04   0.06   0.13
  26   1    -0.03   0.03  -0.01    -0.00   0.03   0.00     0.13   0.02   0.05
  27   1    -0.00   0.01  -0.03     0.02   0.03  -0.01     0.05   0.05   0.12
  28   1    -0.05  -0.02  -0.00    -0.05  -0.02   0.06     0.02   0.03   0.08
  29   1     0.03   0.06   0.08    -0.01   0.07  -0.13     0.02   0.00   0.06
  30   1    -0.04   0.07  -0.07    -0.03   0.09   0.07    -0.00   0.00  -0.04
  31   1    -0.02   0.01  -0.01    -0.02   0.02   0.04     0.00  -0.01  -0.02
  32   1    -0.01  -0.02   0.02    -0.01  -0.01   0.01    -0.00  -0.01  -0.03
  33   1     0.06   0.02  -0.10     0.08   0.03   0.04     0.03  -0.00  -0.03
                     10                     11                     12
                        a                      a                      a 
 Frequencies --   186.2987               213.8673               245.8728
 Red. masses --    13.2821                11.7015                12.4076
 Frc consts  --     0.0000                 0.0000                 0.0000
 IR Inten    --     0.1215                 0.6156                 1.4347
 Raman Activ --     0.0000                 0.0000                 0.0000
 Depolar     --     0.0000                 0.0000                 0.0000
 Atom AN      X      Y      Z        X      Y      Z        X      Y      Z
   1   6    -0.10   0.02   0.06     0.00   0.00   0.01     0.03   0.02   0.07
   2   7    -0.02   0.01   0.03    -0.02  -0.01  -0.07    -0.06  -0.02  -0.10
   3   7    -0.01  -0.03  -0.02    -0.01  -0.01  -0.05    -0.23  -0.16  -0.53
   4   6     0.07  -0.03  -0.06    -0.00  -0.00   0.01    -0.10  -0.08  -0.19
   5   6     0.14  -0.07  -0.05     0.01   0.00   0.03     0.01   0.00   0.04
   6   8     0.19  -0.08   0.01     0.01   0.00   0.03     0.07   0.05   0.16
   7   6     0.11  -0.09  -0.05     0.01   0.01   0.02     0.04   0.03   0.09
   8   8     0.17  -0.10  -0.01    -0.02  -0.03  -0.05    -0.07  -0.11  -0.22
   9   6     0.09  -0.14  -0.07     0.02   0.02   0.05     0.13   0.10   0.26
  10   6     0.09  -0.14  -0.04     0.02   0.01   0.04     0.09   0.06   0.17
  11   6     0.14  -0.22   0.06    -0.02  -0.00  -0.04    -0.08  -0.09  -0.16
  12   6     0.10  -0.11  -0.04     0.01   0.00   0.03     0.01   0.01   0.02
  13   8     0.31  -0.20  -0.04    -0.01   0.01   0.02     0.07   0.08   0.22
  14   6    -0.14   0.07   0.09    -0.03   0.00  -0.16     0.07   0.03   0.28
  15   6    -0.13   0.09   0.04     0.03   0.00   0.17     0.01   0.02   0.06
  16   8    -0.17   0.11  -0.03    -0.04  -0.00  -0.27    -0.07   0.06  -0.09
  17   6    -0.12   0.14   0.04     0.11   0.01   0.62    -0.01   0.01  -0.11
  18   6    -0.11   0.15   0.03     0.03   0.00   0.20     0.01   0.01   0.03
  19   8    -0.14   0.23   0.01    -0.08  -0.00  -0.49     0.01   0.01   0.03
  20   6    -0.13   0.12   0.03     0.02   0.00   0.13     0.03   0.02   0.07
  21   8    -0.35   0.26  -0.01     0.02  -0.00   0.01     0.07  -0.01  -0.02
  22   1     0.03  -0.03  -0.01    -0.00  -0.00   0.00     0.02   0.01   0.04
  23   1     0.05  -0.03   0.01    -0.01  -0.01  -0.02    -0.03  -0.05  -0.08
  24   1     0.02  -0.04  -0.02     0.01   0.00   0.01     0.05   0.04   0.10
  25   1     0.05  -0.07   0.02     0.00  -0.00  -0.02     0.04  -0.05  -0.10
  26   1     0.07  -0.07   0.01    -0.03   0.00  -0.01    -0.12  -0.02  -0.04
  27   1     0.02  -0.07   0.04    -0.01  -0.00  -0.02    -0.05  -0.05  -0.09
  28   1     0.10  -0.02  -0.03    -0.01  -0.00   0.00    -0.02  -0.01  -0.01
  29   1    -0.04   0.03   0.03    -0.03  -0.00  -0.17     0.03   0.01   0.12
  30   1    -0.04   0.03  -0.01    -0.03  -0.00  -0.20    -0.01   0.03   0.01
  31   1    -0.03   0.04   0.00     0.04   0.00   0.24    -0.01   0.00  -0.09
  32   1    -0.02   0.06  -0.00    -0.02  -0.00  -0.11    -0.00   0.00  -0.03
  33   1    -0.12   0.04   0.04    -0.00   0.00  -0.05     0.03   0.01   0.01
                     13                     14                     15
                        a                      a                      a 
 Frequencies --   254.3547               272.5229               277.4043
 Red. masses --    10.4704                13.6470                13.6475
 Frc consts  --     0.0000                 0.0000                 0.0000
 IR Inten    --     8.5699                 5.7161                13.6537
 Raman Activ --     0.0000                 0.0000                 0.0000
 Depolar     --     0.0000                 0.0000                 0.0000
 Atom AN      X      Y      Z        X      Y      Z        X      Y      Z
   1   6    -0.00   0.00   0.00    -0.05   0.01  -0.04     0.04  -0.01  -0.06
   2   7    -0.00  -0.01  -0.02    -0.20  -0.06  -0.51    -0.10  -0.06  -0.49
   3   7    -0.00   0.00  -0.03     0.09   0.09   0.26     0.14   0.04   0.16
   4   6    -0.01  -0.00  -0.01    -0.00   0.03   0.03     0.01  -0.03   0.03
   5   6     0.05  -0.03  -0.02    -0.01  -0.01  -0.03    -0.04  -0.01   0.02
   6   8     0.07  -0.11   0.02     0.03  -0.03   0.06    -0.04   0.15   0.06
   7   6     0.02  -0.05   0.01     0.00   0.00  -0.01    -0.03  -0.01   0.02
   8   8    -0.28   0.10   0.09     0.05  -0.02  -0.02     0.09  -0.10  -0.03
   9   6     0.05  -0.15   0.05    -0.01  -0.01  -0.02    -0.03  -0.01  -0.01
  10   6    -0.02  -0.10   0.06    -0.00  -0.00   0.01    -0.00  -0.01   0.01
  11   6    -0.12   0.56  -0.15     0.01  -0.03   0.02    -0.01   0.08  -0.01
  12   6    -0.02  -0.11   0.05     0.01   0.01   0.04     0.00  -0.02   0.04
  13   8     0.32  -0.33  -0.02    -0.00  -0.05  -0.09    -0.07  -0.04  -0.03
  14   6    -0.00   0.00   0.02     0.05  -0.02   0.25     0.05   0.03   0.26
  15   6    -0.00   0.00   0.01     0.02  -0.03   0.09     0.02   0.03   0.10
  16   8    -0.02   0.01  -0.01    -0.14   0.03  -0.09     0.08  -0.01  -0.14
  17   6    -0.00   0.01  -0.01     0.01  -0.08  -0.05    -0.02   0.09  -0.03
  18   6    -0.00   0.01   0.00    -0.07  -0.02   0.04     0.07   0.04   0.01
  19   8    -0.01   0.03   0.00    -0.09   0.45  -0.01     0.09  -0.48  -0.02
  20   6    -0.00   0.01   0.00    -0.07  -0.04   0.02     0.07   0.06  -0.01
  21   8     0.00   0.00   0.00     0.29  -0.28   0.10    -0.23   0.31   0.14
  22   1     0.00  -0.03   0.01    -0.02  -0.03  -0.01    -0.02   0.02  -0.07
  23   1    -0.07   0.09  -0.00     0.01  -0.01   0.00     0.02  -0.06   0.01
  24   1     0.02  -0.04   0.01    -0.01  -0.01  -0.01    -0.02  -0.01  -0.01
  25   1    -0.14   0.24  -0.04     0.01  -0.01   0.01    -0.02   0.03   0.00
  26   1    -0.12   0.21  -0.03     0.01  -0.01   0.01    -0.01   0.03  -0.00
  27   1     0.12   0.23  -0.13    -0.01  -0.01   0.01     0.02   0.03  -0.01
  28   1     0.13  -0.03  -0.06     0.04   0.02   0.03     0.00   0.00   0.05
  29   1     0.00   0.00   0.01     0.02  -0.01   0.09     0.02   0.02   0.10
  30   1    -0.00   0.01   0.00    -0.03   0.04   0.00     0.02  -0.03  -0.01
  31   1    -0.00   0.00  -0.01     0.00  -0.02  -0.06    -0.02   0.02  -0.05
  32   1     0.00   0.01  -0.00     0.07   0.15  -0.03    -0.08  -0.16   0.00
  33   1     0.00   0.00  -0.00     0.13  -0.01  -0.11    -0.14   0.02  -0.02
                     16                     17                     18
                        a                      a                      a 
 Frequencies --   298.7301               321.9605               340.3696
 Red. masses --    13.5445                12.8523                11.2942
 Frc consts  --     0.0000                 0.0000                 0.0000
 IR Inten    --     5.3975                 1.9913                 0.6292
 Raman Activ --     0.0000                 0.0000                 0.0000
 Depolar     --     0.0000                 0.0000                 0.0000
 Atom AN      X      Y      Z        X      Y      Z        X      Y      Z
   1   6    -0.02   0.00   0.02    -0.07   0.11   0.02    -0.02   0.02  -0.07
   2   7     0.08   0.07   0.10    -0.14   0.08   0.02    -0.02   0.02  -0.03
   3   7     0.01   0.01  -0.08    -0.12   0.11   0.07    -0.15  -0.06  -0.37
   4   6    -0.01  -0.00   0.02    -0.10   0.09  -0.04     0.11   0.10   0.25
   5   6    -0.14   0.03   0.09    -0.05   0.02  -0.06     0.18   0.13   0.35
   6   8    -0.25   0.48  -0.09     0.01  -0.21   0.09    -0.10  -0.16  -0.20
   7   6    -0.11   0.02   0.06    -0.01   0.05  -0.04     0.07   0.04   0.12
   8   8     0.46  -0.34  -0.10     0.13   0.00  -0.07     0.02   0.03   0.04
   9   6    -0.12   0.04   0.02     0.01   0.06   0.05    -0.18  -0.13  -0.36
  10   6    -0.06  -0.03   0.03    -0.06   0.04   0.02     0.01   0.01   0.04
  11   6    -0.08   0.14   0.00    -0.06  -0.09   0.05     0.02   0.01   0.06
  12   6    -0.03  -0.03   0.03    -0.06   0.04  -0.02     0.11   0.09   0.24
  13   8     0.20  -0.18  -0.02     0.26  -0.11  -0.07    -0.06  -0.05  -0.11
  14   6    -0.02  -0.02  -0.02    -0.13   0.08  -0.01     0.01   0.02   0.15
  15   6     0.00  -0.02  -0.01    -0.10   0.09  -0.00    -0.00   0.02   0.08
  16   8     0.02  -0.03   0.01     0.46  -0.20  -0.06     0.05  -0.01  -0.08
  17   6     0.01  -0.05   0.01    -0.13   0.15   0.01    -0.02   0.03   0.00
  18   6    -0.01  -0.04   0.00    -0.12   0.08   0.03    -0.02   0.02   0.02
  19   8    -0.02   0.11   0.01    -0.16  -0.23   0.03    -0.03  -0.03  -0.00
  20   6    -0.03  -0.06   0.01    -0.05   0.12   0.02    -0.00   0.03  -0.01
  21   8     0.01  -0.10  -0.03     0.29  -0.08  -0.04     0.08  -0.02   0.02
  22   1     0.02   0.16  -0.07    -0.03  -0.07   0.09    -0.05  -0.05  -0.05
  23   1     0.11  -0.23   0.03     0.03  -0.03  -0.01    -0.00   0.01  -0.00
  24   1    -0.06  -0.00   0.01     0.01   0.02   0.04    -0.13  -0.10  -0.27
  25   1    -0.06   0.06   0.01     0.01  -0.04   0.00    -0.01   0.01   0.02
  26   1    -0.04   0.05   0.00    -0.01  -0.04   0.01     0.02  -0.01   0.01
  27   1     0.02   0.06  -0.02    -0.05  -0.04   0.03     0.01   0.01   0.04
  28   1     0.08  -0.01  -0.06     0.12   0.03  -0.06    -0.06  -0.04  -0.12
  29   1    -0.01  -0.01  -0.01    -0.04   0.03  -0.01     0.01   0.01   0.07
  30   1     0.00  -0.01   0.00     0.09  -0.20  -0.00     0.01  -0.02  -0.00
  31   1     0.00  -0.02   0.01    -0.05   0.04   0.00    -0.01   0.01  -0.02
  32   1     0.03   0.04  -0.00    -0.11  -0.08   0.01    -0.02  -0.01  -0.01
  33   1     0.01  -0.03   0.04     0.15   0.05  -0.08     0.04   0.01   0.03
                     19                     20                     21
                        a                      a                      a 
 Frequencies --   357.0578               372.5659               388.2337
 Red. masses --    12.5857                 8.6419                13.2415
 Frc consts  --     0.0000                 0.0000                 0.0000
 IR Inten    --     1.5636                50.7065                 4.3196
 Raman Activ --     0.0000                 0.0000                 0.0000
 Depolar     --     0.0000                 0.0000                 0.0000
 Atom AN      X      Y      Z        X      Y      Z        X      Y      Z
   1   6     0.03  -0.04   0.02    -0.04   0.01  -0.17    -0.02  -0.01  -0.03
   2   7    -0.14  -0.09   0.03     0.03   0.04   0.14     0.31   0.17  -0.08
   3   7    -0.14   0.07   0.04    -0.03   0.00   0.00     0.26   0.19  -0.20
   4   6    -0.08   0.12   0.02    -0.01   0.01  -0.01    -0.04   0.01   0.04
   5   6    -0.11   0.08   0.03    -0.01  -0.01  -0.03    -0.19   0.10   0.07
   6   8    -0.10  -0.32   0.16     0.01  -0.03   0.01    -0.23  -0.29   0.19
   7   6    -0.06   0.14  -0.03    -0.01  -0.01  -0.01    -0.02   0.22  -0.06
   8   8     0.16   0.06  -0.09    -0.00  -0.00  -0.00     0.13   0.18  -0.14
   9   6    -0.10   0.14  -0.03     0.02   0.03   0.05     0.03   0.04   0.03
  10   6    -0.10   0.13   0.03    -0.04   0.01  -0.03     0.09  -0.10  -0.09
  11   6    -0.11  -0.07   0.08    -0.02  -0.01   0.02     0.13   0.01  -0.06
  12   6    -0.06   0.14   0.02    -0.04   0.01  -0.06    -0.05  -0.19   0.01
  13   8     0.34  -0.08  -0.15     0.06   0.01   0.01    -0.13  -0.15   0.15
  14   6     0.16  -0.08  -0.07     0.03   0.01   0.22    -0.11   0.06   0.06
  15   6     0.16  -0.08  -0.05     0.04   0.02   0.15    -0.04   0.08   0.03
  16   8    -0.28   0.17   0.06    -0.01   0.02  -0.17     0.12   0.00  -0.03
  17   6     0.17  -0.11  -0.03     0.05  -0.01   0.21    -0.04  -0.03  -0.01
  18   6     0.13  -0.04  -0.01    -0.04  -0.02  -0.34     0.04  -0.09   0.01
  19   8     0.18  -0.10  -0.03     0.02  -0.01  -0.02     0.04   0.10  -0.01
  20   6     0.06  -0.04   0.01    -0.09  -0.03  -0.51    -0.04  -0.14   0.02
  21   8    -0.12   0.07   0.02     0.02  -0.04   0.23    -0.20  -0.11   0.05
  22   1    -0.09  -0.11   0.10     0.01  -0.00   0.02    -0.08  -0.09   0.13
  23   1     0.04  -0.03  -0.00    -0.00  -0.00  -0.01     0.03   0.01  -0.03
  24   1    -0.03   0.04  -0.01     0.02   0.02   0.04    -0.03  -0.01   0.07
  25   1     0.00  -0.04   0.01    -0.01  -0.01   0.01     0.01   0.01  -0.00
  26   1    -0.01  -0.04   0.02     0.01  -0.01   0.00     0.05   0.01  -0.02
  27   1    -0.08  -0.04   0.05    -0.01  -0.01   0.01     0.05   0.01  -0.02
  28   1     0.15   0.05  -0.12     0.02   0.01  -0.01    -0.05  -0.05   0.07
  29   1     0.04  -0.05  -0.02     0.02  -0.00   0.15    -0.03   0.01   0.02
  30   1    -0.05   0.16   0.02    -0.00   0.00  -0.05     0.02  -0.05  -0.01
  31   1     0.07  -0.02  -0.01     0.03  -0.00   0.18    -0.05  -0.03  -0.01
  32   1     0.03  -0.03  -0.01     0.09   0.00   0.47     0.05   0.04  -0.02
  33   1    -0.07  -0.01  -0.05     0.03  -0.02   0.23    -0.10  -0.05  -0.05
                     22                     23                     24
                        a                      a                      a 
 Frequencies --   395.6765               418.4413               427.7634
 Red. masses --    10.8458                12.5035                 3.7303
 Frc consts  --     0.0000                 0.0000                 0.0000
 IR Inten    --     2.3305                 4.2694                22.3203
 Raman Activ --     0.0000                 0.0000                 0.0000
 Depolar     --     0.0000                 0.0000                 0.0000
 Atom AN      X      Y      Z        X      Y      Z        X      Y      Z
   1   6     0.00  -0.00   0.01     0.09  -0.02   0.03    -0.00  -0.00  -0.09
   2   7     0.04   0.02   0.04    -0.09  -0.12   0.07    -0.01  -0.01   0.05
   3   7     0.02   0.00  -0.03    -0.07  -0.10   0.07    -0.02  -0.02   0.03
   4   6    -0.02  -0.02  -0.03    -0.02  -0.06   0.03    -0.00  -0.01   0.02
   5   6    -0.18  -0.10  -0.30    -0.14   0.07   0.07    -0.04   0.00  -0.01
   6   8     0.03   0.05   0.12    -0.20   0.10   0.05    -0.04   0.01   0.02
   7   6    -0.18  -0.10  -0.37     0.02   0.20  -0.04    -0.01   0.03  -0.03
   8   8     0.10   0.09   0.14     0.05   0.22  -0.11     0.01   0.05  -0.02
   9   6    -0.06  -0.05  -0.13     0.04   0.04  -0.04     0.02   0.02   0.01
  10   6     0.26   0.14   0.45     0.20  -0.07  -0.09     0.03  -0.01  -0.04
  11   6     0.00  -0.02  -0.07     0.24   0.00  -0.12     0.05  -0.00  -0.02
  12   6     0.16   0.08   0.33     0.03  -0.16   0.05    -0.01  -0.03  -0.01
  13   8    -0.10  -0.08  -0.11    -0.04  -0.17   0.08     0.00  -0.03   0.02
  14   6    -0.02   0.01   0.00     0.17  -0.12  -0.04     0.04  -0.02  -0.00
  15   6    -0.01   0.01   0.00    -0.02  -0.24  -0.02     0.01  -0.05   0.03
  16   8     0.01   0.00  -0.01    -0.20  -0.22   0.06    -0.08  -0.04  -0.23
  17   6    -0.00   0.00   0.01    -0.02   0.01  -0.01     0.03  -0.00   0.19
  18   6    -0.00  -0.01  -0.02    -0.14   0.13   0.00    -0.04   0.02  -0.06
  19   8     0.00   0.01  -0.00    -0.18  -0.01  -0.03    -0.01  -0.00   0.17
  20   6    -0.01  -0.01  -0.02     0.09   0.24  -0.01    -0.01   0.04  -0.18
  21   8    -0.03  -0.01   0.01     0.22   0.26  -0.03     0.05   0.04   0.03
  22   1     0.03   0.03   0.07    -0.04   0.03   0.00    -0.00   0.01   0.00
  23   1     0.08   0.06   0.15     0.00   0.04  -0.04     0.00   0.01  -0.00
  24   1    -0.04  -0.03  -0.06    -0.04  -0.02   0.01     0.00   0.00   0.02
  25   1     0.10  -0.03  -0.13     0.06   0.01  -0.03     0.01  -0.00  -0.00
  26   1    -0.17  -0.01  -0.00     0.07   0.00  -0.03     0.02  -0.00  -0.01
  27   1    -0.02  -0.03  -0.10     0.08   0.00  -0.04     0.01  -0.00  -0.00
  28   1    -0.08  -0.06  -0.12    -0.01  -0.05   0.03    -0.00  -0.01  -0.01
  29   1    -0.00   0.00   0.00     0.05  -0.01  -0.01     0.01  -0.00   0.01
  30   1     0.00  -0.01   0.01    -0.05  -0.01  -0.05     0.11   0.01   0.68
  31   1    -0.00  -0.00   0.01     0.07   0.04  -0.01     0.03   0.01   0.11
  32   1     0.01   0.00   0.04    -0.03  -0.01   0.22    -0.10  -0.01  -0.52
  33   1    -0.01  -0.01   0.02     0.07   0.08  -0.04     0.04   0.01   0.15
                     25                     26                     27
                        a                      a                      a 
 Frequencies --   432.8964               442.1078               476.4979
 Red. masses --     3.1646                13.5033                12.1111
 Frc consts  --     0.0000                 0.0000                 0.0000
 IR Inten    --   185.3036                 3.2993                32.4362
 Raman Activ --     0.0000                 0.0000                 0.0000
 Depolar     --     0.0000                 0.0000                 0.0000
 Atom AN      X      Y      Z        X      Y      Z        X      Y      Z
   1   6     0.01  -0.00   0.09    -0.14   0.04   0.07     0.05  -0.12  -0.03
   2   7     0.01  -0.01  -0.03    -0.33  -0.06   0.07     0.02  -0.22   0.05
   3   7     0.02  -0.00  -0.02    -0.29  -0.11   0.19     0.02  -0.30   0.06
   4   6     0.00  -0.01  -0.03    -0.09  -0.03   0.00     0.10  -0.19   0.01
   5   6     0.03  -0.00   0.02    -0.00   0.03   0.03    -0.16  -0.08   0.12
   6   8     0.02   0.00  -0.02    -0.03   0.20  -0.05    -0.24  -0.04   0.12
   7   6     0.01  -0.02   0.04     0.12   0.12  -0.03    -0.12  -0.04   0.10
   8   8    -0.02  -0.04   0.01     0.01   0.18  -0.09    -0.17  -0.10   0.09
   9   6    -0.02  -0.01  -0.01     0.11  -0.06  -0.07    -0.11   0.21  -0.02
  10   6    -0.01   0.01   0.02     0.15  -0.06  -0.04     0.14   0.11  -0.11
  11   6    -0.02   0.01   0.01     0.19  -0.04  -0.08     0.21   0.05  -0.12
  12   6     0.01   0.02  -0.00    -0.02  -0.14   0.08     0.15   0.11  -0.10
  13   8    -0.00   0.03  -0.01    -0.05  -0.19   0.08     0.20   0.16  -0.16
  14   6    -0.05   0.02  -0.07    -0.11   0.07  -0.01    -0.20   0.06   0.05
  15   6    -0.03   0.04  -0.11     0.11   0.23  -0.05    -0.16   0.12   0.04
  16   8     0.00   0.03  -0.14     0.15   0.33  -0.01     0.03   0.02  -0.01
  17   6    -0.01   0.01  -0.01     0.09   0.03  -0.01    -0.13   0.16   0.03
  18   6     0.04  -0.01   0.11     0.12  -0.04  -0.03     0.10   0.01  -0.05
  19   8    -0.01   0.00  -0.22     0.17  -0.12  -0.02     0.15   0.09  -0.00
  20   6     0.03  -0.03   0.20    -0.12  -0.14   0.02     0.06  -0.03  -0.07
  21   8    -0.03  -0.03  -0.01    -0.06  -0.25   0.00     0.04  -0.03   0.07
  22   1    -0.01  -0.00  -0.01     0.01   0.06  -0.06    -0.05  -0.00   0.05
  23   1    -0.01  -0.01  -0.01    -0.01   0.06  -0.06    -0.01   0.01   0.08
  24   1    -0.01  -0.01  -0.02    -0.01  -0.04  -0.02    -0.03   0.06  -0.02
  25   1    -0.01   0.00   0.00     0.06  -0.01  -0.02     0.06   0.01  -0.04
  26   1    -0.01   0.00   0.00     0.05  -0.01  -0.02     0.06   0.01  -0.04
  27   1    -0.00   0.00   0.00     0.05  -0.01  -0.02     0.06   0.01  -0.03
  28   1    -0.01   0.00  -0.01    -0.00  -0.04   0.03     0.06   0.05  -0.05
  29   1    -0.02   0.00  -0.04    -0.03  -0.03  -0.01    -0.05   0.07   0.02
  30   1     0.11   0.00   0.64     0.04   0.09  -0.01    -0.01  -0.05  -0.03
  31   1    -0.02  -0.00  -0.03    -0.02  -0.02   0.02    -0.08   0.02   0.02
  32   1     0.11   0.01   0.58     0.01  -0.04  -0.01     0.05   0.03  -0.06
  33   1    -0.06  -0.00  -0.25     0.02  -0.04   0.01    -0.03  -0.00  -0.20
                     28                     29                     30
                        a                      a                      a 
 Frequencies --   480.5229               500.0935               518.9021
 Red. masses --     3.0307                 4.1026                10.9609
 Frc consts  --     0.0000                 0.0000                 0.0000
 IR Inten    --   103.5426               220.1384                 2.0342
 Raman Activ --     0.0000                 0.0000                 0.0000
 Depolar     --     0.0000                 0.0000                 0.0000
 Atom AN      X      Y      Z        X      Y      Z        X      Y      Z
   1   6     0.03  -0.02   0.07    -0.04   0.04  -0.08    -0.11   0.04  -0.31
   2   7     0.03  -0.02  -0.04     0.03   0.05   0.18    -0.03   0.07   0.04
   3   7     0.06   0.00   0.06    -0.05   0.01  -0.04    -0.08  -0.06  -0.10
   4   6    -0.05  -0.06  -0.13     0.00   0.04   0.00     0.18   0.08   0.37
   5   6    -0.02  -0.01   0.00     0.04   0.02  -0.04    -0.08  -0.09  -0.07
   6   8    -0.00  -0.02   0.08     0.08   0.07  -0.08    -0.06   0.02   0.05
   7   6     0.00   0.02   0.05     0.01  -0.03  -0.05    -0.18  -0.17  -0.27
   8   8     0.09   0.07   0.21     0.06   0.01   0.06    -0.02  -0.03   0.19
   9   6    -0.08  -0.01  -0.11     0.02  -0.07   0.01     0.07   0.11   0.14
  10   6     0.05   0.05   0.09    -0.01  -0.04   0.03    -0.02  -0.04  -0.26
  11   6     0.00   0.01  -0.01    -0.03  -0.00   0.01     0.13   0.00  -0.07
  12   6     0.02   0.02   0.01    -0.01  -0.03   0.01     0.05   0.04   0.01
  13   8     0.02   0.02  -0.03    -0.05  -0.01   0.03     0.06   0.04  -0.03
  14   6    -0.04   0.01  -0.03     0.07  -0.02   0.04     0.09  -0.01   0.06
  15   6    -0.04   0.01  -0.02     0.06  -0.03   0.05     0.14   0.02   0.08
  16   8     0.01  -0.02   0.01    -0.01   0.01  -0.01     0.05   0.12  -0.05
  17   6    -0.03   0.01   0.02     0.05  -0.03   0.01     0.07  -0.07  -0.11
  18   6     0.01  -0.01  -0.03    -0.05   0.01  -0.08    -0.05   0.01   0.28
  19   8     0.02   0.03   0.00    -0.04  -0.04   0.07    -0.16  -0.07  -0.06
  20   6     0.02  -0.01   0.01    -0.05   0.03  -0.17    -0.06   0.02   0.12
  21   8    -0.01   0.01  -0.05     0.00   0.00   0.27    -0.03  -0.04  -0.05
  22   1     0.01  -0.00   0.03     0.04   0.04   0.12     0.04   0.03   0.08
  23   1    -0.39  -0.28  -0.75    -0.09  -0.07  -0.19    -0.09  -0.06  -0.14
  24   1    -0.04  -0.01  -0.06     0.01  -0.01   0.02     0.09   0.08   0.16
  25   1     0.02  -0.00  -0.02    -0.01   0.00   0.00     0.00   0.01   0.02
  26   1    -0.03  -0.00   0.00    -0.01   0.00   0.00     0.11   0.00  -0.03
  27   1    -0.00  -0.00  -0.02    -0.00   0.00  -0.00     0.04   0.01   0.01
  28   1     0.01   0.01  -0.00    -0.02  -0.01   0.01    -0.01  -0.01  -0.06
  29   1    -0.01   0.01  -0.02     0.02  -0.02   0.04     0.03  -0.05   0.05
  30   1    -0.00  -0.02   0.00    -0.01   0.02  -0.06     0.02   0.06   0.01
  31   1    -0.01   0.00   0.02     0.03   0.00   0.01     0.02  -0.01  -0.12
  32   1     0.02   0.01   0.01    -0.05  -0.02  -0.14    -0.05  -0.03   0.05
  33   1     0.03  -0.00   0.18    -0.16   0.02  -0.80     0.03   0.00   0.10
                     31                     32                     33
                        a                      a                      a 
 Frequencies --   526.5637               578.2530               582.1744
 Red. masses --    12.6119                11.5108                10.9492
 Frc consts  --     0.0000                 0.0000                 0.0000
 IR Inten    --     5.2501                 2.0359                 3.4695
 Raman Activ --     0.0000                 0.0000                 0.0000
 Depolar     --     0.0000                 0.0000                 0.0000
 Atom AN      X      Y      Z        X      Y      Z        X      Y      Z
   1   6     0.01  -0.16  -0.12    -0.02  -0.08   0.49     0.01   0.02  -0.01
   2   7    -0.04  -0.18   0.05    -0.04  -0.11  -0.18     0.00   0.02   0.02
   3   7    -0.08  -0.03  -0.06     0.00   0.09  -0.19    -0.00  -0.02   0.03
   4   6     0.08   0.12   0.19     0.15   0.14   0.13    -0.02  -0.02  -0.00
   5   6     0.03   0.05  -0.10    -0.02   0.05  -0.06     0.00  -0.02   0.01
   6   8     0.11   0.07  -0.06     0.02  -0.05   0.03    -0.01   0.01  -0.00
   7   6    -0.02   0.04  -0.22    -0.15  -0.05  -0.08     0.03   0.00   0.00
   8   8     0.15   0.17  -0.06     0.03  -0.09   0.07    -0.01   0.02  -0.01
   9   6     0.08  -0.04   0.10    -0.03  -0.01   0.15     0.01   0.01  -0.02
  10   6    -0.17  -0.08  -0.05    -0.05  -0.15  -0.17    -0.00   0.03   0.01
  11   6    -0.18  -0.02   0.10     0.05   0.01  -0.04    -0.01  -0.00   0.01
  12   6    -0.05  -0.02   0.08     0.16   0.03   0.12    -0.03   0.00  -0.00
  13   8    -0.08  -0.09   0.06    -0.06   0.06  -0.04     0.01  -0.01   0.01
  14   6    -0.22  -0.03   0.07    -0.08  -0.09  -0.05    -0.03   0.01  -0.25
  15   6    -0.22  -0.02   0.08     0.06   0.00  -0.12     0.12   0.01   0.76
  16   8    -0.16  -0.18   0.01    -0.02   0.10   0.04    -0.03  -0.02  -0.18
  17   6    -0.15   0.23  -0.01     0.08   0.11   0.11    -0.04  -0.03  -0.16
  18   6     0.26   0.05   0.04    -0.08   0.12  -0.44    -0.05  -0.03  -0.31
  19   8     0.39   0.07  -0.09     0.01  -0.06   0.11     0.02   0.01   0.11
  20   6     0.12  -0.00  -0.00    -0.07   0.05   0.09     0.05  -0.01   0.19
  21   8     0.12   0.03  -0.02     0.06  -0.06  -0.02    -0.02   0.01  -0.06
  22   1     0.03   0.02   0.01    -0.01  -0.02   0.03     0.00   0.00  -0.01
  23   1    -0.01  -0.00  -0.09    -0.01  -0.07   0.00     0.00   0.02  -0.00
  24   1     0.05   0.01   0.10    -0.00   0.00   0.10     0.01   0.00  -0.01
  25   1    -0.08   0.00   0.06    -0.05   0.03   0.04     0.01  -0.01  -0.00
  26   1    -0.01  -0.00   0.02     0.06   0.03  -0.01    -0.00  -0.01   0.00
  27   1    -0.05   0.00   0.05     0.06   0.03  -0.01    -0.01  -0.01   0.01
  28   1    -0.01  -0.02   0.01    -0.04  -0.01   0.02     0.00  -0.00  -0.02
  29   1    -0.06   0.06   0.03    -0.04  -0.06  -0.10    -0.04   0.01  -0.25
  30   1    -0.04  -0.07   0.01     0.00   0.07  -0.01     0.00  -0.01   0.02
  31   1    -0.08   0.04  -0.02     0.07   0.05   0.12    -0.04  -0.01  -0.20
  32   1     0.11   0.02  -0.01    -0.06  -0.04   0.02     0.02   0.01   0.05
  33   1     0.03   0.01  -0.01     0.06   0.02  -0.03    -0.01  -0.00  -0.00
                     34                     35                     36
                        a                      a                      a 
 Frequencies --   591.7990               595.3054               612.0014
 Red. masses --     6.8195                 9.3447                11.6607
 Frc consts  --     0.0000                 0.0000                 0.0000
 IR Inten    --    65.3971                 7.0259                49.6722
 Raman Activ --     0.0000                 0.0000                 0.0000
 Depolar     --     0.0000                 0.0000                 0.0000
 Atom AN      X      Y      Z        X      Y      Z        X      Y      Z
   1   6    -0.13  -0.08  -0.07     0.23   0.13   0.15     0.05  -0.14  -0.08
   2   7     0.04  -0.03   0.06    -0.07   0.03  -0.09     0.12  -0.24   0.08
   3   7     0.01   0.06  -0.06    -0.11  -0.17  -0.09     0.08  -0.25  -0.04
   4   6     0.05   0.05  -0.02    -0.00  -0.04   0.20     0.13  -0.10  -0.04
   5   6     0.10   0.13   0.19     0.05  -0.05   0.13    -0.13  -0.04  -0.25
   6   8    -0.01  -0.06  -0.04    -0.03   0.06   0.01     0.05  -0.01   0.05
   7   6    -0.16  -0.06  -0.16    -0.01  -0.10  -0.26     0.09   0.21   0.18
   8   8     0.04  -0.03   0.06     0.00   0.11   0.03     0.09   0.17  -0.18
   9   6    -0.08  -0.04  -0.01     0.12   0.08  -0.01    -0.07  -0.04   0.03
  10   6     0.15   0.03   0.27    -0.05   0.11  -0.03    -0.15  -0.11  -0.04
  11   6     0.03   0.02  -0.00    -0.06  -0.01   0.04    -0.21   0.01   0.10
  12   6    -0.07  -0.11  -0.31    -0.09   0.04   0.05     0.21   0.08   0.21
  13   8    -0.06   0.02  -0.09     0.01  -0.12  -0.08    -0.07   0.02  -0.16
  14   6    -0.08  -0.11   0.02     0.14   0.19  -0.01    -0.02  -0.02  -0.00
  15   6     0.08  -0.02   0.05    -0.11   0.06  -0.10     0.08   0.10   0.04
  16   8    -0.06   0.05  -0.01     0.12  -0.05   0.01     0.12   0.23  -0.04
  17   6     0.06   0.12  -0.04    -0.09  -0.22   0.09     0.00  -0.01  -0.04
  18   6     0.03   0.14   0.05    -0.08  -0.24  -0.16    -0.10   0.01   0.11
  19   8     0.03  -0.06  -0.02    -0.08   0.10   0.05    -0.25   0.00   0.02
  20   6    -0.09   0.05   0.01     0.16  -0.08   0.02     0.00   0.01  -0.05
  21   8     0.06  -0.07  -0.02    -0.08   0.11   0.02     0.01   0.01  -0.00
  22   1    -0.05  -0.04  -0.05    -0.04  -0.01  -0.15     0.00  -0.00   0.02
  23   1     0.01  -0.03   0.03    -0.01   0.06  -0.04     0.02   0.01  -0.02
  24   1    -0.03  -0.01   0.03     0.08   0.05   0.02    -0.06  -0.03  -0.00
  25   1     0.05   0.00  -0.06     0.02  -0.03   0.00    -0.12   0.03   0.07
  26   1    -0.11   0.02   0.01     0.01  -0.02   0.01    -0.03   0.03   0.03
  27   1     0.02  -0.00  -0.07    -0.07  -0.03   0.04    -0.02   0.03   0.03
  28   1     0.26   0.18   0.57     0.22   0.13   0.31     0.11   0.08   0.29
  29   1    -0.02  -0.07   0.00     0.04   0.12  -0.04    -0.00  -0.00  -0.00
  30   1    -0.00   0.06   0.02     0.02  -0.09  -0.00     0.03   0.06   0.01
  31   1     0.05   0.05  -0.04    -0.07  -0.09   0.08    -0.00  -0.00  -0.04
  32   1    -0.05  -0.04   0.02     0.08   0.06  -0.01    -0.06   0.00   0.01
  33   1     0.07   0.02   0.02    -0.12  -0.04  -0.03     0.00  -0.00   0.03
                     37                     38                     39
                        a                      a                      a 
 Frequencies --   616.0777               637.7066               650.7138
 Red. masses --    10.5400                10.6097                 3.9923
 Frc consts  --     0.0000                 0.0000                 0.0000
 IR Inten    --    79.3218                51.2991               174.8562
 Raman Activ --     0.0000                 0.0000                 0.0000
 Depolar     --     0.0000                 0.0000                 0.0000
 Atom AN      X      Y      Z        X      Y      Z        X      Y      Z
   1   6     0.06  -0.13   0.03     0.12   0.11  -0.02    -0.00   0.02   0.06
   2   7     0.07  -0.23  -0.06    -0.24  -0.06   0.05     0.02   0.03   0.11
   3   7     0.13  -0.18   0.09    -0.20   0.03   0.10    -0.02   0.07  -0.02
   4   6     0.11  -0.11   0.02     0.13   0.17  -0.10    -0.04   0.03  -0.11
   5   6     0.12   0.11   0.27     0.05   0.24  -0.03    -0.01   0.04  -0.01
   6   8    -0.02  -0.01  -0.03     0.09  -0.11  -0.06     0.13  -0.02   0.19
   7   6    -0.11   0.00  -0.30    -0.22   0.09   0.02    -0.10  -0.02  -0.05
   8   8     0.12   0.21  -0.06     0.09  -0.06  -0.01     0.01  -0.04   0.03
   9   6    -0.00  -0.01   0.04    -0.19  -0.15   0.16    -0.04   0.03   0.08
  10   6    -0.03   0.01   0.16     0.08  -0.27   0.08    -0.01  -0.06  -0.08
  11   6    -0.19   0.00   0.10     0.10   0.01  -0.05     0.05   0.00  -0.04
  12   6    -0.10  -0.10  -0.29     0.19  -0.08  -0.13     0.09   0.03   0.13
  13   8     0.09   0.10   0.15    -0.04   0.20  -0.03    -0.02   0.01  -0.01
  14   6    -0.03  -0.02  -0.00     0.09   0.15  -0.05    -0.01   0.00  -0.06
  15   6     0.05   0.09  -0.03    -0.08   0.05   0.06     0.01  -0.00   0.09
  16   8     0.11   0.20  -0.01     0.07  -0.03  -0.02    -0.01  -0.01  -0.01
  17   6     0.00   0.01   0.01    -0.09  -0.18  -0.02    -0.01   0.00  -0.07
  18   6    -0.10   0.01  -0.02     0.01  -0.20   0.08     0.04   0.00   0.17
  19   8    -0.21   0.01   0.04     0.01   0.06  -0.02     0.02  -0.00  -0.03
  20   6     0.02   0.01   0.00     0.12  -0.05  -0.08    -0.03   0.01  -0.19
  21   8     0.02   0.00   0.00    -0.04   0.11   0.00     0.04  -0.03   0.05
  22   1    -0.05  -0.03  -0.11    -0.00  -0.03   0.18    -0.36  -0.23  -0.75
  23   1     0.02   0.04  -0.02     0.02  -0.12   0.05    -0.02  -0.05  -0.02
  24   1     0.00   0.00   0.05    -0.13  -0.09   0.11    -0.03  -0.00   0.03
  25   1    -0.04   0.00  -0.01    -0.05   0.06  -0.00    -0.01   0.01   0.01
  26   1    -0.11   0.01   0.03    -0.04   0.06  -0.00     0.04   0.01  -0.01
  27   1    -0.05   0.00  -0.00     0.14   0.05  -0.09     0.03   0.01  -0.01
  28   1    -0.20  -0.13  -0.36    -0.09  -0.04   0.02    -0.03  -0.02  -0.04
  29   1    -0.01  -0.01  -0.00     0.03   0.10  -0.02     0.00   0.00   0.00
  30   1     0.02   0.05  -0.02     0.01  -0.07   0.01    -0.00  -0.00  -0.00
  31   1     0.00   0.00   0.01    -0.08  -0.08  -0.01    -0.01   0.00  -0.03
  32   1    -0.05   0.00   0.01     0.09   0.05  -0.01     0.00  -0.00  -0.01
  33   1    -0.00  -0.00  -0.02    -0.06  -0.02   0.07    -0.01  -0.00  -0.07
                     40                     41                     42
                        a                      a                      a 
 Frequencies --   666.6766               680.3127               706.6019
 Red. masses --    10.9304                11.9106                13.2488
 Frc consts  --     0.0000                 0.0000                 0.0000
 IR Inten    --    42.0240                16.7301                 0.5476
 Raman Activ --     0.0000                 0.0000                 0.0000
 Depolar     --     0.0000                 0.0000                 0.0000
 Atom AN      X      Y      Z        X      Y      Z        X      Y      Z
   1   6     0.07  -0.01   0.43     0.06  -0.02   0.23     0.05  -0.15  -0.08
   2   7     0.01  -0.03  -0.10    -0.03  -0.07  -0.06     0.04  -0.21   0.03
   3   7     0.04   0.02  -0.04    -0.04   0.02  -0.13     0.03   0.07   0.00
   4   6    -0.08  -0.05  -0.08     0.20   0.18   0.45    -0.06   0.07  -0.06
   5   6     0.09   0.03   0.17    -0.18  -0.13  -0.35     0.12   0.11  -0.04
   6   8    -0.07   0.01  -0.08     0.05   0.03   0.07     0.36  -0.05  -0.19
   7   6    -0.02  -0.08  -0.13     0.12   0.07   0.24    -0.18   0.03   0.06
   8   8    -0.02  -0.01   0.03    -0.03  -0.04  -0.01    -0.05  -0.13   0.08
   9   6     0.08   0.05   0.03    -0.07  -0.02  -0.16    -0.25   0.41  -0.01
  10   6    -0.05   0.03  -0.09     0.10   0.10   0.17     0.03   0.18  -0.09
  11   6    -0.01  -0.00  -0.00     0.03   0.01   0.01     0.11   0.03  -0.07
  12   6     0.01   0.05   0.13    -0.22  -0.13  -0.35    -0.13  -0.07   0.12
  13   8    -0.01  -0.05  -0.01     0.03  -0.02   0.10    -0.12  -0.38   0.19
  14   6    -0.04  -0.02  -0.17    -0.01   0.01  -0.06    -0.06  -0.03   0.02
  15   6     0.04  -0.00   0.17     0.00   0.02   0.04     0.01   0.06  -0.00
  16   8    -0.00   0.01  -0.01     0.03   0.03  -0.00     0.07   0.14  -0.02
  17   6    -0.03   0.02  -0.18    -0.02  -0.02  -0.05    -0.02  -0.05   0.01
  18   6     0.06   0.03   0.40     0.01  -0.03   0.11    -0.04  -0.06  -0.01
  19   8    -0.02  -0.00  -0.06    -0.03   0.01  -0.01    -0.10   0.02   0.02
  20   6    -0.10  -0.01  -0.53    -0.00  -0.00  -0.20     0.10  -0.00   0.03
  21   8     0.00  -0.01   0.08     0.02   0.03   0.03     0.05   0.09  -0.02
  22   1     0.13   0.08   0.24    -0.02  -0.02  -0.09     0.06  -0.01   0.04
  23   1     0.00   0.03   0.01    -0.01  -0.01  -0.02    -0.01  -0.08   0.04
  24   1     0.04   0.02  -0.01     0.00   0.01  -0.02    -0.07   0.12  -0.01
  25   1     0.00  -0.01   0.01     0.05  -0.01  -0.04     0.08  -0.02  -0.03
  26   1     0.03  -0.01  -0.01    -0.04  -0.01   0.01     0.07  -0.03  -0.03
  27   1    -0.03  -0.01   0.02    -0.01  -0.01  -0.01    -0.04  -0.02   0.03
  28   1     0.02   0.01   0.01    -0.02  -0.02  -0.05     0.01  -0.05   0.01
  29   1    -0.02  -0.00  -0.11    -0.01   0.01  -0.05    -0.01   0.01   0.02
  30   1     0.00   0.01   0.02     0.01  -0.00   0.00     0.02   0.03  -0.01
  31   1    -0.01   0.01  -0.07    -0.02  -0.01  -0.01    -0.03  -0.02   0.01
  32   1    -0.01  -0.00   0.01     0.01   0.01  -0.00     0.01   0.02   0.00
  33   1     0.01  -0.00   0.05    -0.01  -0.00  -0.01    -0.01   0.00   0.01
                     43                     44                     45
                        a                      a                      a 
 Frequencies --   754.6476               806.0004               820.1768
 Red. masses --    12.9536                 4.1685                11.3032
 Frc consts  --     0.0000                 0.0000                 0.0000
 IR Inten    --     3.7616                48.3071                15.0327
 Raman Activ --     0.0000                 0.0000                 0.0000
 Depolar     --     0.0000                 0.0000                 0.0000
 Atom AN      X      Y      Z        X      Y      Z        X      Y      Z
   1   6    -0.01  -0.26  -0.07    -0.08   0.01  -0.05    -0.27   0.10   0.11
   2   7     0.01  -0.25   0.07     0.02   0.06   0.03     0.01   0.29  -0.06
   3   7    -0.02   0.34  -0.06     0.00  -0.02   0.01     0.04  -0.18   0.01
   4   6    -0.14   0.19  -0.07     0.00  -0.03  -0.01     0.08  -0.17   0.04
   5   6    -0.04   0.02   0.03     0.00  -0.01   0.00     0.02  -0.07   0.02
   6   8    -0.23   0.07   0.09     0.01  -0.00  -0.00     0.08  -0.03  -0.03
   7   6     0.12  -0.10  -0.03    -0.01   0.00   0.00    -0.04   0.03   0.01
   8   8    -0.06  -0.13   0.08     0.01   0.01  -0.01     0.04   0.10  -0.06
   9   6     0.24  -0.23  -0.03    -0.02   0.01   0.00    -0.12   0.11   0.01
  10   6    -0.00  -0.02   0.00     0.00  -0.00   0.00     0.01  -0.01  -0.00
  11   6     0.06  -0.02  -0.03    -0.01  -0.00   0.00    -0.05  -0.00   0.03
  12   6    -0.07   0.06   0.04     0.01  -0.00  -0.00     0.08  -0.03  -0.03
  13   8    -0.01   0.08  -0.03     0.01   0.00  -0.00     0.02   0.00  -0.01
  14   6    -0.23  -0.11   0.02    -0.04  -0.02   0.38    -0.36  -0.08  -0.01
  15   6     0.02   0.08   0.01    -0.02   0.00  -0.17     0.04   0.02   0.03
  16   8     0.11   0.21  -0.03     0.01   0.01   0.05    -0.01  -0.01  -0.01
  17   6    -0.02  -0.20   0.01     0.06  -0.10   0.18     0.12  -0.37  -0.10
  18   6    -0.03  -0.16   0.00    -0.00  -0.05  -0.02     0.01  -0.15   0.01
  19   8    -0.08   0.03   0.01     0.04  -0.01   0.01     0.16  -0.03  -0.03
  20   6     0.15   0.02  -0.00    -0.04   0.03  -0.12    -0.11   0.11   0.02
  21   8     0.20   0.30  -0.03     0.06   0.10   0.01     0.18   0.34  -0.02
  22   1    -0.03   0.03   0.00    -0.00  -0.01  -0.02     0.03  -0.00  -0.01
  23   1    -0.01   0.02  -0.00     0.00   0.00  -0.00     0.01   0.01  -0.01
  24   1     0.10  -0.05  -0.04    -0.01   0.00   0.01    -0.05   0.02   0.03
  25   1     0.03  -0.01  -0.01    -0.00   0.00   0.00    -0.03   0.01   0.01
  26   1     0.03  -0.01  -0.01    -0.00   0.00   0.00    -0.03   0.01   0.01
  27   1     0.01  -0.01   0.00     0.00   0.00  -0.00     0.01   0.01  -0.01
  28   1     0.03   0.05  -0.03    -0.01  -0.01  -0.01    -0.02  -0.03   0.02
  29   1    -0.05  -0.04   0.07    -0.14  -0.06  -0.71    -0.09  -0.16   0.16
  30   1     0.03   0.04  -0.01     0.00   0.00   0.01    -0.00  -0.01  -0.00
  31   1    -0.07  -0.09   0.02    -0.08  -0.04  -0.42     0.00  -0.14   0.17
  32   1     0.06   0.04  -0.02     0.03   0.01   0.00     0.09   0.01  -0.02
  33   1    -0.01   0.03  -0.01     0.03   0.03   0.00     0.11   0.14  -0.04
                     46                     47                     48
                        a                      a                      a 
 Frequencies --   846.5766               865.0502               940.4998
 Red. masses --     3.8236                 3.7059                10.5344
 Frc consts  --     0.0000                 0.0000                 0.0000
 IR Inten    --     5.4629                19.3325                39.7383
 Raman Activ --     0.0000                 0.0000                 0.0000
 Depolar     --     0.0000                 0.0000                 0.0000
 Atom AN      X      Y      Z        X      Y      Z        X      Y      Z
   1   6    -0.01   0.01   0.08    -0.00   0.00  -0.01    -0.05   0.07  -0.01
   2   7    -0.01   0.02  -0.02     0.00   0.00   0.01    -0.11  -0.07   0.06
   3   7     0.01  -0.02  -0.01    -0.00  -0.00  -0.00    -0.03   0.06   0.01
   4   6     0.01  -0.02   0.01     0.02   0.01   0.04     0.32   0.09  -0.19
   5   6     0.00  -0.01   0.00    -0.04  -0.03  -0.08     0.02   0.14  -0.06
   6   8     0.01  -0.00  -0.00     0.00   0.00   0.02    -0.23   0.01   0.12
   7   6    -0.00   0.00  -0.00    -0.05  -0.03  -0.09     0.10  -0.04  -0.04
   8   8     0.00   0.01  -0.01     0.02   0.01   0.03    -0.08  -0.18   0.11
   9   6    -0.01   0.01   0.00     0.20   0.14   0.38     0.14   0.22  -0.16
  10   6     0.00  -0.00  -0.00    -0.01  -0.01  -0.02     0.12   0.06  -0.09
  11   6    -0.01  -0.00   0.00    -0.02  -0.01  -0.02    -0.31   0.02   0.15
  12   6     0.01  -0.00  -0.00    -0.04  -0.03  -0.10     0.34  -0.13  -0.12
  13   8     0.00  -0.00  -0.00     0.01   0.00   0.01    -0.06  -0.20   0.11
  14   6    -0.06  -0.01  -0.25    -0.00   0.00   0.00     0.05   0.06  -0.01
  15   6    -0.01   0.00  -0.06     0.00   0.00   0.00    -0.01   0.02   0.00
  16   8     0.00  -0.00   0.02    -0.00  -0.00   0.00    -0.01  -0.02   0.00
  17   6     0.08  -0.02   0.40     0.00  -0.01  -0.00     0.00  -0.06   0.00
  18   6    -0.01  -0.01  -0.07    -0.00  -0.00   0.00    -0.02  -0.00   0.00
  19   8     0.02  -0.00   0.02     0.00  -0.00  -0.00     0.07  -0.01  -0.01
  20   6    -0.03   0.01  -0.05    -0.00   0.00   0.00    -0.07   0.04   0.01
  21   8     0.01   0.02   0.01    -0.00   0.00   0.00    -0.01  -0.00   0.00
  22   1     0.01   0.00   0.00     0.01   0.00   0.01    -0.12  -0.03   0.05
  23   1     0.00   0.00  -0.00    -0.00  -0.00  -0.01    -0.01   0.05  -0.01
  24   1    -0.01   0.00  -0.00    -0.37  -0.26  -0.74     0.17   0.14  -0.13
  25   1    -0.00   0.00   0.00    -0.04   0.00   0.04    -0.07  -0.00   0.04
  26   1    -0.00   0.00   0.00     0.06   0.01  -0.01    -0.08  -0.00   0.04
  27   1     0.00   0.00  -0.00     0.01   0.01   0.03    -0.12  -0.01   0.06
  28   1     0.00   0.00   0.01     0.01   0.00   0.02    -0.16  -0.19   0.13
  29   1     0.06   0.00   0.44    -0.00  -0.00  -0.00     0.01   0.03  -0.00
  30   1    -0.00  -0.00  -0.01    -0.00  -0.00  -0.00    -0.00  -0.03   0.00
  31   1    -0.13  -0.02  -0.73     0.00  -0.00   0.00    -0.02  -0.02   0.00
  32   1     0.01  -0.00   0.00     0.00  -0.00  -0.00     0.00  -0.01  -0.00
  33   1     0.01   0.01   0.01     0.00   0.00  -0.00     0.04   0.03   0.00
                     49                     50                     51
                        a                      a                      a 
 Frequencies --  1001.3613              1019.7747              1032.0935
 Red. masses --     5.7409                10.0645                 8.9723
 Frc consts  --     0.0000                 0.0000                 0.0000
 IR Inten    --     8.3307                38.8743                27.5943
 Raman Activ --     0.0000                 0.0000                 0.0000
 Depolar     --     0.0000                 0.0000                 0.0000
 Atom AN      X      Y      Z        X      Y      Z        X      Y      Z
   1   6    -0.00  -0.04  -0.00    -0.13   0.00   0.02     0.03  -0.03   0.02
   2   7    -0.05   0.03   0.01     0.03  -0.04   0.01    -0.09   0.37  -0.04
   3   7    -0.05   0.19  -0.03     0.07   0.03  -0.03    -0.11  -0.06   0.06
   4   6    -0.07  -0.02   0.03     0.00  -0.04   0.00     0.04  -0.02  -0.01
   5   6     0.05  -0.21   0.05    -0.01  -0.03   0.02     0.02   0.03  -0.03
   6   8    -0.02  -0.00   0.01     0.01  -0.00  -0.01    -0.02  -0.01   0.02
   7   6     0.05  -0.09   0.01    -0.01  -0.01   0.01    -0.00   0.00  -0.00
   8   8     0.03   0.07  -0.04     0.01   0.03  -0.02    -0.00  -0.01   0.01
   9   6    -0.09   0.30  -0.06    -0.02  -0.03   0.02    -0.01  -0.00   0.01
  10   6     0.08  -0.10  -0.01    -0.01   0.01   0.00     0.04   0.01  -0.01
  11   6    -0.00  -0.34   0.13     0.00   0.06  -0.02    -0.07   0.10  -0.01
  12   6     0.00  -0.02   0.01     0.00  -0.00   0.00     0.11  -0.05  -0.04
  13   8     0.01   0.03  -0.02     0.00   0.01  -0.01     0.03  -0.01  -0.01
  14   6     0.06  -0.08  -0.01     0.43  -0.21  -0.07    -0.06  -0.25   0.01
  15   6    -0.01  -0.05   0.00    -0.13  -0.14   0.02     0.05  -0.13  -0.01
  16   8     0.04   0.06  -0.01     0.16   0.27  -0.03     0.05   0.07  -0.01
  17   6    -0.10   0.09   0.02    -0.43   0.04   0.07    -0.19   0.31   0.03
  18   6     0.01  -0.03  -0.00    -0.12  -0.07   0.02     0.12  -0.11  -0.02
  19   8    -0.03   0.01   0.01     0.27  -0.00  -0.05    -0.23   0.00   0.04
  20   6     0.06  -0.05  -0.01    -0.20   0.12   0.03     0.26  -0.22  -0.05
  21   8     0.04   0.02  -0.00    -0.05   0.02   0.01     0.14   0.08  -0.02
  22   1     0.12   0.05  -0.05     0.03   0.01  -0.01    -0.02  -0.01   0.02
  23   1     0.01   0.12  -0.05     0.00  -0.00   0.00    -0.00  -0.01   0.00
  24   1     0.06   0.13  -0.08    -0.03  -0.02   0.02    -0.03  -0.02   0.02
  25   1    -0.33   0.15   0.07     0.05  -0.02  -0.01     0.06  -0.04  -0.00
  26   1    -0.24   0.17   0.09     0.03  -0.03  -0.01     0.06  -0.04  -0.02
  27   1     0.44   0.10  -0.25    -0.07  -0.01   0.04    -0.14  -0.02   0.08
  28   1     0.01   0.01  -0.00     0.01   0.01   0.00    -0.07  -0.08   0.07
  29   1     0.01  -0.06  -0.01     0.11  -0.20  -0.02    -0.03  -0.34   0.02
  30   1     0.01   0.04  -0.00     0.03   0.00  -0.01     0.03   0.17  -0.01
  31   1    -0.04   0.02   0.01    -0.31  -0.08   0.06    -0.03   0.10   0.00
  32   1     0.03   0.02  -0.01     0.12   0.02  -0.02     0.12   0.06  -0.02
  33   1    -0.07  -0.05  -0.00     0.18   0.15  -0.03    -0.25  -0.21   0.03
                     52                     53                     54
                        a                      a                      a 
 Frequencies --  1036.1505              1074.6336              1131.1406
 Red. masses --     4.4004                 8.6945                10.9797
 Frc consts  --     0.0000                 0.0000                 0.0000
 IR Inten    --     6.9156                33.7507                81.6379
 Raman Activ --     0.0000                 0.0000                 0.0000
 Depolar     --     0.0000                 0.0000                 0.0000
 Atom AN      X      Y      Z        X      Y      Z        X      Y      Z
   1   6     0.00   0.00   0.00    -0.04  -0.02  -0.02    -0.01  -0.03  -0.00
   2   7    -0.00   0.01  -0.00    -0.10  -0.13   0.06    -0.01  -0.02   0.00
   3   7    -0.00  -0.00  -0.00    -0.05   0.35  -0.07     0.00   0.09  -0.03
   4   6     0.00   0.00   0.01     0.02  -0.06  -0.01    -0.21  -0.11   0.14
   5   6    -0.00  -0.00  -0.01     0.09  -0.36   0.09    -0.27   0.01   0.14
   6   8     0.00  -0.00  -0.00    -0.09  -0.04   0.05     0.24  -0.02  -0.12
   7   6     0.01   0.01   0.02     0.01  -0.23   0.08     0.07   0.27  -0.14
   8   8    -0.00  -0.00   0.00     0.11   0.19  -0.13    -0.12  -0.20   0.14
   9   6     0.02   0.01   0.04    -0.25   0.10   0.09     0.17   0.10  -0.12
  10   6    -0.15  -0.11  -0.29     0.05  -0.07  -0.01     0.34  -0.06  -0.15
  11   6     0.19   0.14   0.36    -0.06   0.19  -0.04    -0.24   0.01   0.12
  12   6     0.01   0.01   0.03     0.16  -0.11  -0.04    -0.00  -0.22   0.08
  13   8    -0.00   0.00  -0.00     0.06   0.05  -0.05     0.10   0.21  -0.13
  14   6    -0.00  -0.00   0.00     0.02   0.08   0.00     0.00   0.01   0.00
  15   6     0.00  -0.00  -0.00     0.02   0.03  -0.00     0.03   0.00  -0.00
  16   8     0.00   0.00   0.00    -0.01  -0.03   0.00     0.00  -0.02  -0.00
  17   6    -0.00   0.01   0.00     0.04  -0.04  -0.01    -0.01  -0.04   0.00
  18   6     0.00  -0.00  -0.00    -0.01   0.04   0.00    -0.02   0.05   0.00
  19   8    -0.01  -0.00   0.00     0.01   0.01  -0.00     0.05   0.04  -0.01
  20   6     0.01  -0.00  -0.00     0.00  -0.02   0.00     0.03   0.01  -0.00
  21   8     0.00   0.00  -0.00     0.05   0.01  -0.01     0.02  -0.01  -0.01
  22   1    -0.00  -0.00  -0.00     0.27   0.10  -0.13     0.06   0.01  -0.02
  23   1    -0.00  -0.00  -0.00     0.03   0.20  -0.09    -0.03  -0.07   0.04
  24   1    -0.03  -0.02  -0.06    -0.19  -0.04   0.11    -0.21  -0.13   0.15
  25   1     0.38  -0.02  -0.38     0.13  -0.06  -0.02    -0.08   0.01   0.04
  26   1    -0.56  -0.07   0.13     0.08  -0.08  -0.03    -0.08   0.01   0.03
  27   1    -0.06  -0.08  -0.22    -0.23  -0.04   0.13    -0.12  -0.02   0.06
  28   1    -0.00  -0.00  -0.01    -0.10  -0.11   0.09    -0.01   0.00   0.01
  29   1    -0.00  -0.01   0.00     0.01   0.13  -0.01     0.00   0.04  -0.00
  30   1     0.00   0.00  -0.00    -0.00  -0.01   0.00     0.01   0.05  -0.00
  31   1     0.00   0.00  -0.00     0.01  -0.01  -0.00    -0.10  -0.06   0.02
  32   1     0.00   0.00  -0.00    -0.05  -0.02   0.01    -0.14  -0.05   0.02
  33   1    -0.01  -0.00   0.00    -0.08  -0.06  -0.01    -0.06  -0.05   0.01
                     55                     56                     57
                        a                      a                      a 
 Frequencies --  1136.0930              1139.8893              1166.7699
 Red. masses --     3.7451                 3.2509                 3.9148
 Frc consts  --     0.0000                 0.0000                 0.0000
 IR Inten    --   227.9266               199.3585               180.8967
 Raman Activ --     0.0000                 0.0000                 0.0000
 Depolar     --     0.0000                 0.0000                 0.0000
 Atom AN      X      Y      Z        X      Y      Z        X      Y      Z
   1   6     0.05  -0.01  -0.01    -0.04   0.10   0.00    -0.10   0.04   0.01
   2   7    -0.02  -0.02   0.01     0.02  -0.08  -0.00    -0.05  -0.07   0.03
   3   7     0.01   0.06  -0.02    -0.00   0.02  -0.00     0.03   0.09  -0.03
   4   6    -0.07  -0.01   0.04     0.03  -0.01  -0.01    -0.00  -0.05   0.01
   5   6    -0.07  -0.04   0.05    -0.01  -0.01   0.01    -0.09  -0.11   0.09
   6   8     0.06   0.01  -0.03     0.00  -0.02   0.00     0.06  -0.08  -0.01
   7   6     0.02   0.02  -0.02    -0.00   0.03  -0.01    -0.17   0.08   0.06
   8   8    -0.01  -0.02   0.02    -0.01  -0.01   0.01    -0.09   0.25  -0.05
   9   6     0.02   0.03  -0.02     0.02   0.00  -0.01     0.12  -0.06  -0.04
  10   6     0.10  -0.02  -0.04     0.03  -0.01  -0.01    -0.03  -0.01   0.02
  11   6    -0.07   0.01   0.03    -0.02   0.00   0.01     0.00   0.01  -0.01
  12   6     0.02  -0.07   0.01    -0.01   0.00   0.01     0.04  -0.01  -0.02
  13   8     0.03   0.06  -0.03    -0.02   0.00   0.01     0.05   0.01  -0.03
  14   6     0.00  -0.02   0.00     0.06  -0.01  -0.01     0.03   0.04  -0.01
  15   6    -0.09  -0.01   0.02    -0.16   0.05   0.03     0.02   0.00  -0.00
  16   8     0.01   0.08  -0.00    -0.07   0.26   0.01    -0.00  -0.03   0.00
  17   6     0.06   0.13  -0.01     0.05  -0.08  -0.01    -0.01   0.01   0.00
  18   6     0.02  -0.20  -0.00    -0.08   0.06   0.01     0.00  -0.00  -0.00
  19   8    -0.16  -0.18   0.03     0.09   0.03  -0.02    -0.01  -0.02   0.00
  20   6    -0.09   0.03   0.01     0.07   0.02  -0.01    -0.04  -0.03   0.01
  21   8    -0.11   0.00   0.02     0.08  -0.02  -0.02     0.07   0.04  -0.01
  22   1     0.00  -0.00  -0.00     0.04   0.01  -0.01     0.25   0.08  -0.12
  23   1    -0.00   0.01  -0.00    -0.00  -0.02   0.01    -0.06  -0.62   0.26
  24   1    -0.06  -0.03   0.04    -0.02  -0.01   0.02     0.33   0.16  -0.22
  25   1    -0.02   0.00   0.01    -0.00   0.00   0.00     0.02  -0.01  -0.00
  26   1    -0.02  -0.00   0.01    -0.00  -0.00   0.00     0.02  -0.01  -0.01
  27   1    -0.04  -0.01   0.02    -0.01  -0.00   0.00    -0.01  -0.00   0.00
  28   1    -0.01  -0.01   0.01     0.04   0.05  -0.03    -0.09  -0.11   0.08
  29   1     0.01   0.11  -0.01    -0.00  -0.39   0.01     0.01   0.06  -0.00
  30   1    -0.02  -0.11   0.00    -0.13  -0.69   0.03     0.01   0.03  -0.00
  31   1     0.41   0.24  -0.07     0.27   0.11  -0.05     0.02   0.01  -0.00
  32   1     0.61   0.19  -0.10    -0.10  -0.04   0.02     0.07   0.02  -0.01
  33   1     0.24   0.20  -0.04    -0.21  -0.18   0.04    -0.09  -0.07  -0.00
                     58                     59                     60
                        a                      a                      a 
 Frequencies --  1168.3957              1177.7338              1198.9277
 Red. masses --     8.8505                 6.1272                 7.5093
 Frc consts  --     0.0000                 0.0000                 0.0000
 IR Inten    --   452.6076               130.5740               353.4116
 Raman Activ --     0.0000                 0.0000                 0.0000
 Depolar     --     0.0000                 0.0000                 0.0000
 Atom AN      X      Y      Z        X      Y      Z        X      Y      Z
   1   6     0.15  -0.22  -0.01     0.17  -0.10  -0.02    -0.23   0.19   0.02
   2   7    -0.03   0.25  -0.03    -0.01   0.05  -0.00     0.08  -0.26   0.01
   3   7    -0.04  -0.06   0.04    -0.01   0.02  -0.00     0.07   0.02  -0.03
   4   6    -0.15   0.03   0.07    -0.24   0.02   0.11    -0.12  -0.10   0.09
   5   6    -0.02   0.05  -0.01    -0.09   0.03   0.03    -0.18   0.16   0.03
   6   8     0.04   0.03  -0.02     0.09   0.06  -0.06     0.13   0.04  -0.08
   7   6     0.01  -0.05   0.01     0.02  -0.10   0.03     0.06  -0.02  -0.03
   8   8     0.02   0.02  -0.02     0.03   0.05  -0.04     0.05  -0.10   0.01
   9   6    -0.05  -0.01   0.03    -0.08  -0.01   0.04    -0.09  -0.06   0.07
  10   6    -0.06   0.03   0.02    -0.06   0.03   0.02    -0.17   0.07   0.06
  11   6     0.03   0.00  -0.02     0.03   0.01  -0.02     0.09  -0.01  -0.04
  12   6     0.05  -0.04  -0.01     0.06  -0.12   0.02    -0.01  -0.07   0.03
  13   8     0.12   0.03  -0.07     0.17   0.09  -0.12     0.12   0.06  -0.09
  14   6    -0.11  -0.15   0.02     0.03  -0.06  -0.01     0.04   0.16  -0.01
  15   6    -0.17  -0.27   0.03     0.04   0.16  -0.01     0.07   0.08  -0.01
  16   8     0.15   0.26  -0.03    -0.12  -0.01   0.02    -0.01  -0.14   0.00
  17   6    -0.08  -0.18   0.01     0.13   0.08  -0.02    -0.07  -0.01   0.01
  18   6    -0.23   0.08   0.04     0.21  -0.04  -0.03    -0.15   0.04   0.03
  19   8     0.24   0.06  -0.04    -0.18   0.03   0.03     0.08  -0.08  -0.01
  20   6     0.08   0.12  -0.02     0.04  -0.03  -0.01    -0.05   0.07   0.01
  21   8    -0.03  -0.10   0.00    -0.14  -0.01   0.02     0.14   0.01  -0.03
  22   1    -0.09  -0.03   0.05    -0.13  -0.04   0.06    -0.15  -0.04   0.08
  23   1     0.01   0.02  -0.01     0.01   0.04  -0.02     0.03   0.25  -0.11
  24   1     0.09   0.06  -0.07     0.16   0.11  -0.12     0.15   0.09  -0.10
  25   1     0.01  -0.00  -0.01     0.02  -0.01  -0.01     0.03  -0.00  -0.01
  26   1     0.01  -0.00  -0.00     0.02  -0.00  -0.01     0.03   0.00  -0.01
  27   1     0.01   0.00  -0.01     0.00  -0.00  -0.00     0.05   0.01  -0.03
  28   1    -0.17  -0.20   0.15    -0.23  -0.27   0.21    -0.15  -0.18   0.14
  29   1    -0.01   0.34  -0.00     0.00  -0.19   0.00     0.00  -0.11   0.01
  30   1     0.03   0.04  -0.00    -0.07  -0.29   0.02     0.03   0.16  -0.00
  31   1     0.28   0.11  -0.05    -0.24  -0.12   0.04     0.04   0.03  -0.01
  32   1    -0.15  -0.06   0.03    -0.13  -0.03   0.02     0.25   0.07  -0.04
  33   1    -0.05  -0.05   0.02     0.26   0.23  -0.03    -0.27  -0.23   0.06
                     61                     62                     63
                        a                      a                      a 
 Frequencies --  1218.8676              1229.8453              1251.2196
 Red. masses --     7.3170                 7.0551                 6.0116
 Frc consts  --     0.0000                 0.0000                 0.0000
 IR Inten    --    14.4299               215.7384                78.8076
 Raman Activ --     0.0000                 0.0000                 0.0000
 Depolar     --     0.0000                 0.0000                 0.0000
 Atom AN      X      Y      Z        X      Y      Z        X      Y      Z
   1   6    -0.17  -0.08   0.03    -0.23  -0.09   0.04    -0.09   0.12   0.00
   2   7    -0.01   0.04   0.00     0.00   0.06  -0.00     0.00  -0.11   0.02
   3   7     0.08  -0.12   0.01     0.00   0.03  -0.01     0.02   0.02  -0.02
   4   6    -0.03   0.10  -0.02     0.02  -0.15   0.04     0.01  -0.01   0.00
   5   6    -0.03   0.01   0.01    -0.02   0.10  -0.03    -0.11   0.04   0.05
   6   8    -0.03  -0.08   0.04     0.06   0.05  -0.04     0.04  -0.04  -0.01
   7   6     0.07   0.16  -0.09    -0.04  -0.06   0.04    -0.00   0.08  -0.03
   8   8    -0.04  -0.13   0.07     0.04   0.01  -0.02     0.01  -0.08   0.02
   9   6     0.08  -0.06  -0.02    -0.08   0.01   0.04    -0.02  -0.02   0.02
  10   6    -0.18   0.18   0.03     0.07  -0.12   0.01    -0.06  -0.01   0.04
  11   6     0.09  -0.08  -0.01    -0.03   0.06  -0.00     0.02   0.01  -0.02
  12   6     0.01   0.26  -0.10    -0.01  -0.19   0.07     0.01  -0.01  -0.00
  13   8     0.07  -0.14   0.02    -0.05   0.11  -0.01     0.01   0.01  -0.01
  14   6     0.12  -0.03  -0.02     0.14  -0.06  -0.02     0.03   0.19  -0.01
  15   6     0.00  -0.03  -0.00    -0.02  -0.11   0.00    -0.10  -0.06   0.02
  16   8    -0.03   0.07   0.00    -0.01   0.13  -0.00     0.07  -0.03  -0.01
  17   6     0.06   0.08  -0.01     0.06   0.08  -0.01    -0.19  -0.02   0.03
  18   6     0.15  -0.02  -0.03     0.21  -0.03  -0.03     0.11  -0.16  -0.02
  19   8    -0.09  -0.01   0.02    -0.11   0.01   0.02     0.03   0.14  -0.01
  20   6    -0.20  -0.18   0.03    -0.21  -0.25   0.04     0.01  -0.40  -0.00
  21   8     0.15   0.16  -0.02     0.18   0.20  -0.03    -0.01   0.19   0.01
  22   1     0.21   0.07  -0.11    -0.20  -0.07   0.10     0.13   0.04  -0.07
  23   1    -0.00   0.04  -0.01     0.02   0.10  -0.05     0.01   0.11  -0.05
  24   1    -0.23  -0.16   0.18     0.21   0.14  -0.16     0.08   0.04  -0.06
  25   1    -0.03   0.02  -0.01     0.03  -0.02   0.00     0.02  -0.01  -0.00
  26   1    -0.01   0.04   0.01     0.02  -0.03  -0.01     0.02  -0.01  -0.01
  27   1     0.12   0.02  -0.06    -0.06  -0.01   0.03     0.01   0.00  -0.01
  28   1    -0.21  -0.26   0.19     0.17   0.20  -0.15    -0.01  -0.01   0.01
  29   1     0.05   0.28  -0.01     0.06   0.41  -0.02    -0.00  -0.18   0.01
  30   1    -0.03  -0.18   0.01    -0.03  -0.20   0.01     0.04   0.19  -0.01
  31   1    -0.07  -0.02   0.01    -0.06  -0.02   0.01     0.38   0.21  -0.07
  32   1     0.01   0.01  -0.00    -0.06  -0.01   0.01    -0.37  -0.11   0.06
  33   1    -0.08  -0.05  -0.00    -0.10  -0.07   0.02     0.24   0.23  -0.05
                     64                     65                     66
                        a                      a                      a 
 Frequencies --  1262.0546              1278.7647              1336.2366
 Red. masses --     5.5515                12.1602                11.6118
 Frc consts  --     0.0000                 0.0000                 0.0000
 IR Inten    --   331.1938                17.8665               532.5454
 Raman Activ --     0.0000                 0.0000                 0.0000
 Depolar     --     0.0000                 0.0000                 0.0000
 Atom AN      X      Y      Z        X      Y      Z        X      Y      Z
   1   6    -0.12   0.03   0.02    -0.06  -0.03   0.01     0.04   0.53  -0.02
   2   7     0.06  -0.11   0.00     0.15  -0.03  -0.05     0.11  -0.23  -0.02
   3   7    -0.04   0.12  -0.02     0.06  -0.35   0.06     0.04  -0.06   0.00
   4   6     0.01  -0.16   0.05    -0.24   0.40  -0.00    -0.09   0.16  -0.01
   5   6     0.23  -0.10  -0.09     0.33   0.12  -0.21    -0.04  -0.01   0.03
   6   8    -0.05   0.17  -0.02    -0.22  -0.04   0.12     0.01   0.00  -0.01
   7   6     0.06  -0.20   0.04    -0.03  -0.09   0.05     0.00  -0.11   0.04
   8   8    -0.04   0.20  -0.05     0.00   0.01  -0.01     0.01   0.05  -0.03
   9   6     0.05   0.04  -0.04    -0.04   0.12  -0.02    -0.00  -0.01   0.01
  10   6     0.04   0.14  -0.07     0.18  -0.12  -0.05     0.06   0.03  -0.04
  11   6    -0.01  -0.06   0.03    -0.03   0.02   0.01    -0.02  -0.01   0.01
  12   6    -0.09   0.04   0.03    -0.19  -0.25   0.18     0.02  -0.01  -0.01
  13   8     0.07  -0.01  -0.03     0.10   0.18  -0.11     0.00  -0.00  -0.00
  14   6     0.05   0.10  -0.01     0.05   0.10  -0.01    -0.09  -0.30   0.01
  15   6    -0.00  -0.01   0.00     0.04   0.05  -0.01    -0.37  -0.18   0.07
  16   8     0.01  -0.02  -0.00    -0.01  -0.05   0.00     0.09   0.11  -0.02
  17   6    -0.07  -0.00   0.01    -0.05  -0.01   0.01     0.24   0.06  -0.04
  18   6     0.03  -0.03  -0.00    -0.06   0.03   0.01     0.26  -0.20  -0.04
  19   8     0.01   0.03  -0.00     0.05  -0.01  -0.01    -0.11   0.03   0.02
  20   6    -0.03  -0.14   0.01    -0.13  -0.09   0.02    -0.08   0.19   0.02
  21   8     0.05   0.08  -0.01     0.07   0.07  -0.01    -0.01  -0.05  -0.00
  22   1    -0.48  -0.16   0.25     0.15   0.06  -0.09    -0.00   0.01   0.00
  23   1    -0.03  -0.32   0.13    -0.00  -0.05   0.02     0.00  -0.01   0.00
  24   1    -0.26  -0.15   0.18    -0.00   0.03  -0.01    -0.02  -0.02   0.02
  25   1    -0.06   0.03   0.00    -0.03   0.01   0.02    -0.02   0.01   0.00
  26   1    -0.04   0.04   0.02    -0.03  -0.00   0.01    -0.02   0.01   0.01
  27   1     0.03   0.00  -0.01    -0.08  -0.02   0.04    -0.02  -0.01   0.01
  28   1    -0.09  -0.12   0.09    -0.06  -0.05   0.04    -0.02  -0.02   0.01
  29   1     0.01  -0.02   0.00     0.01  -0.05   0.00    -0.02   0.05   0.01
  30   1     0.01   0.04  -0.00     0.00   0.02  -0.00     0.04   0.15  -0.01
  31   1     0.10   0.06  -0.02     0.04   0.03  -0.01    -0.04  -0.04   0.01
  32   1    -0.08  -0.02   0.01     0.04   0.01  -0.01    -0.13  -0.03   0.02
  33   1     0.01   0.01   0.02    -0.03  -0.02  -0.01    -0.08  -0.07   0.02
                     67                     68                     69
                        a                      a                      a 
 Frequencies --  1357.9744              1386.2488              1396.6957
 Red. masses --    11.5596                10.8960                11.1142
 Frc consts  --     0.0000                 0.0000                 0.0000
 IR Inten    --   115.1295               134.5140               171.2395
 Raman Activ --     0.0000                 0.0000                 0.0000
 Depolar     --     0.0000                 0.0000                 0.0000
 Atom AN      X      Y      Z        X      Y      Z        X      Y      Z
   1   6     0.04   0.10  -0.01    -0.02  -0.09   0.01     0.33  -0.20  -0.05
   2   7     0.11  -0.03  -0.04    -0.11   0.03   0.04    -0.18   0.10   0.06
   3   7    -0.18   0.11   0.04     0.21  -0.14  -0.04     0.10   0.05  -0.05
   4   6     0.32  -0.15  -0.11    -0.09   0.36  -0.08     0.01  -0.08   0.02
   5   6     0.17  -0.17  -0.03    -0.10  -0.38   0.19     0.04   0.00  -0.03
   6   8    -0.05   0.02   0.02     0.15   0.08  -0.10    -0.02   0.01   0.01
   7   6    -0.10   0.32  -0.07    -0.30   0.03   0.14     0.08   0.05  -0.06
   8   8    -0.04  -0.13   0.07     0.05   0.04  -0.04    -0.02  -0.02   0.02
   9   6     0.13   0.20  -0.14     0.17   0.04  -0.10    -0.04   0.03   0.01
  10   6    -0.16  -0.32   0.20     0.17  -0.28   0.01    -0.07   0.01   0.04
  11   6     0.09   0.05  -0.07    -0.05   0.05   0.00    -0.02   0.00   0.01
  12   6    -0.38  -0.01   0.19    -0.02   0.31  -0.10     0.02  -0.06   0.01
  13   8     0.12   0.13  -0.11    -0.02  -0.09   0.05    -0.01   0.02  -0.01
  14   6    -0.03  -0.10   0.01     0.04   0.07  -0.01     0.11  -0.14  -0.01
  15   6    -0.05  -0.03   0.01     0.02   0.04  -0.00    -0.17   0.37   0.03
  16   8     0.01   0.03  -0.00    -0.01  -0.04   0.00    -0.03  -0.15   0.01
  17   6     0.05   0.02  -0.01    -0.03  -0.01   0.01     0.14   0.13  -0.03
  18   6     0.01  -0.02  -0.00     0.00  -0.02  -0.00    -0.12  -0.33   0.03
  19   8    -0.02  -0.00   0.00     0.02   0.01  -0.00     0.12   0.04  -0.02
  20   6     0.01   0.03  -0.00    -0.06  -0.01   0.01    -0.44   0.09   0.07
  21   8    -0.03  -0.02   0.01     0.05   0.03  -0.01     0.13   0.09  -0.02
  22   1    -0.04  -0.03   0.02    -0.24  -0.08   0.13    -0.02  -0.01   0.01
  23   1    -0.00   0.07  -0.03     0.02   0.15  -0.07    -0.01  -0.04   0.02
  24   1     0.02   0.05  -0.03     0.05   0.01  -0.03    -0.01   0.01   0.00
  25   1     0.06  -0.04   0.02     0.01  -0.03   0.05     0.05  -0.02  -0.04
  26   1     0.03  -0.07  -0.02    -0.03  -0.06  -0.00     0.07  -0.01  -0.01
  27   1    -0.02  -0.01   0.01    -0.06  -0.01   0.03     0.06   0.02  -0.04
  28   1    -0.13  -0.14   0.11    -0.04  -0.04   0.03     0.03   0.03  -0.02
  29   1    -0.01   0.03   0.00     0.01  -0.04  -0.00     0.03  -0.11  -0.01
  30   1     0.00  -0.00   0.00     0.00   0.02  -0.00     0.02   0.13  -0.00
  31   1    -0.03  -0.02   0.01     0.03   0.02  -0.01     0.10   0.07  -0.02
  32   1     0.00   0.00  -0.00    -0.02  -0.01   0.00    -0.13  -0.05   0.02
  33   1     0.02   0.02  -0.01    -0.05  -0.04   0.02    -0.14  -0.11   0.02
                     70                     71                     72
                        a                      a                      a 
 Frequencies --  1402.1689              1424.6119              1442.6456
 Red. masses --     3.4952                10.4696                11.6787
 Frc consts  --     0.0000                 0.0000                 0.0000
 IR Inten    --    15.8539                46.7883               113.0383
 Raman Activ --     0.0000                 0.0000                 0.0000
 Depolar     --     0.0000                 0.0000                 0.0000
 Atom AN      X      Y      Z        X      Y      Z        X      Y      Z
   1   6     0.05  -0.03  -0.01     0.04  -0.01  -0.01     0.10  -0.15  -0.02
   2   7    -0.05   0.02   0.01     0.07   0.02  -0.03    -0.35   0.07   0.12
   3   7     0.01   0.03  -0.01    -0.14   0.08   0.03     0.29  -0.00  -0.11
   4   6     0.06  -0.06  -0.01     0.17  -0.17  -0.03     0.16  -0.02  -0.08
   5   6    -0.03   0.05  -0.00    -0.02   0.15  -0.05    -0.02   0.03  -0.00
   6   8     0.01  -0.01   0.00     0.03  -0.05   0.01    -0.00  -0.01   0.01
   7   6    -0.04  -0.02   0.03    -0.45  -0.11   0.27    -0.06  -0.03   0.04
   8   8     0.01   0.00  -0.01     0.11   0.04  -0.07     0.01   0.01  -0.01
   9   6     0.02  -0.06   0.01     0.16  -0.23   0.00     0.05  -0.01  -0.02
  10   6    -0.02   0.08  -0.02     0.28   0.23  -0.23    -0.07   0.13  -0.01
  11   6     0.38  -0.01  -0.20    -0.13  -0.10   0.11     0.02  -0.05   0.01
  12   6    -0.02   0.01   0.01    -0.24   0.08   0.09    -0.15  -0.18   0.14
  13   8     0.00  -0.01   0.00     0.06  -0.01  -0.03     0.04   0.08  -0.05
  14   6     0.01  -0.03  -0.00     0.01  -0.08  -0.00     0.01   0.26  -0.00
  15   6    -0.01   0.05   0.00     0.03   0.09  -0.01    -0.28  -0.22   0.05
  16   8    -0.01  -0.02   0.00    -0.02  -0.03   0.00     0.09   0.07  -0.02
  17   6     0.01   0.02  -0.00     0.01   0.05  -0.00     0.05  -0.21  -0.01
  18   6    -0.02  -0.05   0.00    -0.08  -0.08   0.01     0.30   0.30  -0.05
  19   8     0.02   0.01  -0.00     0.04   0.01  -0.01    -0.15  -0.05   0.03
  20   6    -0.05   0.01   0.01    -0.03  -0.00   0.00    -0.10   0.03   0.02
  21   8     0.01   0.01  -0.00     0.01   0.02   0.00     0.01  -0.04  -0.00
  22   1     0.03   0.01  -0.01     0.11   0.02  -0.06     0.01  -0.00  -0.00
  23   1     0.00   0.02  -0.01     0.03   0.20  -0.09     0.00   0.03  -0.01
[...]
  27   1    -0.01   0.01  -0.01    -0.32  -0.28  -0.58     0.18   0.09  -0.15
  28   1    -0.01  -0.02   0.01    -0.00  -0.00   0.00    -0.02  -0.03   0.02
  29   1     0.02  -0.17  -0.00    -0.00  -0.00   0.00    -0.03   0.02   0.00
  30   1     0.03   0.14  -0.01    -0.00  -0.00   0.00    -0.01  -0.04   0.00
  31   1     0.02  -0.05  -0.00    -0.00  -0.00   0.00    -0.03  -0.00   0.00
  32   1     0.07   0.02  -0.01     0.00   0.00  -0.00    -0.00  -0.00  -0.00
  33   1    -0.03  -0.03  -0.00     0.00  -0.00   0.00     0.02   0.02  -0.01
                     76                     77                     78
                        a                      a                      a 
 Frequencies --  1482.7327              1484.0963              1574.4232
 Red. masses --    11.6041                 7.3887                11.5780
 Frc consts  --     0.0000                 0.0000                 0.0000
 IR Inten    --   516.3597               224.4572                39.6383
 Raman Activ --     0.0000                 0.0000                 0.0000
 Depolar     --     0.0000                 0.0000                 0.0000
 Atom AN      X      Y      Z        X      Y      Z        X      Y      Z
   1   6     0.42   0.19  -0.08     0.06   0.14  -0.02    -0.29  -0.08   0.05
   2   7     0.07  -0.06  -0.02    -0.17  -0.08   0.08    -0.07   0.05   0.02
   3   7    -0.11   0.03   0.03     0.19   0.05  -0.09     0.08  -0.02  -0.03
   4   6     0.03   0.07  -0.03    -0.22  -0.17   0.17    -0.05  -0.02   0.03
   5   6    -0.11  -0.04   0.07     0.30  -0.04  -0.14     0.01   0.07  -0.03
   6   8     0.05   0.01  -0.03    -0.09   0.03   0.04    -0.00  -0.01   0.00
   7   6     0.02  -0.06   0.01    -0.03   0.26  -0.08    -0.07  -0.06   0.06
   8   8     0.00   0.03  -0.01    -0.02  -0.10   0.04     0.01   0.01  -0.01
   9   6    -0.00  -0.00   0.00    -0.09  -0.03   0.06     0.12   0.08  -0.09
  10   6    -0.00   0.02  -0.01     0.07  -0.14   0.02    -0.09  -0.04   0.06
  11   6    -0.00   0.01  -0.00     0.03  -0.11   0.03     0.02  -0.00  -0.01
  12   6     0.02  -0.01  -0.01     0.08   0.18  -0.10     0.06  -0.04  -0.02
  13   8    -0.01  -0.01   0.01    -0.01  -0.05   0.02    -0.01   0.01  -0.00
  14   6    -0.18   0.04   0.03    -0.08  -0.01   0.01     0.17  -0.05  -0.03
  15   6     0.03  -0.26  -0.00     0.06  -0.09  -0.01    -0.42   0.13   0.07
  16   8     0.01   0.07  -0.00    -0.00   0.03   0.00     0.03  -0.03  -0.00
  17   6     0.15   0.09  -0.03     0.01   0.04  -0.00     0.44   0.14  -0.08
  18   6    -0.33   0.25   0.05    -0.06  -0.00   0.01    -0.35   0.06   0.06
  19   8     0.12  -0.05  -0.02     0.02  -0.00  -0.00     0.07  -0.02  -0.01
  20   6    -0.28  -0.47   0.05     0.02  -0.05  -0.00     0.36  -0.23  -0.06
  21   8     0.08   0.17  -0.01    -0.01   0.00   0.00    -0.03   0.03   0.01
  22   1    -0.02  -0.01   0.01    -0.03  -0.02   0.01     0.01   0.00  -0.01
  23   1     0.00  -0.01   0.00    -0.00   0.02  -0.01     0.00   0.01  -0.01
  24   1    -0.01  -0.01   0.01     0.09   0.06  -0.07    -0.04  -0.02   0.03
  25   1     0.00  -0.01   0.03    -0.06   0.20  -0.35     0.00   0.01  -0.02
  26   1    -0.01  -0.03  -0.00     0.12   0.40   0.04     0.01   0.01  -0.00
  27   1     0.01   0.01  -0.01    -0.22  -0.09   0.17    -0.01  -0.00   0.00
  28   1     0.00   0.00  -0.00    -0.01  -0.01   0.00     0.01   0.02  -0.01
  29   1    -0.06  -0.08   0.01    -0.02   0.01   0.00     0.04  -0.01  -0.01
  30   1    -0.01  -0.03   0.00    -0.01  -0.03   0.00     0.02   0.11  -0.00
  31   1    -0.16  -0.07   0.03    -0.04  -0.01   0.01    -0.10  -0.07   0.02
  32   1     0.12   0.03  -0.02     0.01   0.00  -0.00     0.04   0.01  -0.01
  33   1     0.02   0.03  -0.01     0.02   0.02  -0.01     0.08   0.07  -0.01
                     79                     80                     81
                        a                      a                      a 
 Frequencies --  1579.2723              1588.6610              1596.3717
 Red. masses --    11.3795                11.6233                11.6269
 Frc consts  --     0.0000                 0.0000                 0.0000
 IR Inten    --    25.5375                31.1485               101.2666
 Raman Activ --     0.0000                 0.0000                 0.0000
 Depolar     --     0.0000                 0.0000                 0.0000
 Atom AN      X      Y      Z        X      Y      Z        X      Y      Z
   1   6     0.09   0.02  -0.02    -0.01  -0.02   0.00     0.09   0.20  -0.02
   2   7     0.01  -0.02  -0.00    -0.10   0.03   0.03    -0.05   0.00   0.02
   3   7    -0.01   0.03  -0.00     0.09  -0.02  -0.03     0.06  -0.00  -0.02
   4   6    -0.15  -0.15   0.12     0.15  -0.08  -0.05    -0.02   0.00   0.01
   5   6    -0.09   0.34  -0.08    -0.22   0.29   0.01    -0.00   0.01  -0.00
   6   8     0.03  -0.04  -0.00     0.02  -0.03  -0.00     0.00   0.00  -0.00
   7   6    -0.14  -0.31   0.19     0.37  -0.28  -0.08    -0.00  -0.01   0.01
   8   8     0.03   0.07  -0.04    -0.02   0.06  -0.01     0.00   0.00  -0.00
   9   6     0.37   0.30  -0.29    -0.21   0.06   0.09     0.01   0.01  -0.01
  10   6    -0.23  -0.27   0.22     0.28  -0.34  -0.02    -0.00  -0.02   0.01
  11   6     0.06   0.00  -0.03    -0.05   0.03   0.01     0.00   0.00  -0.00
  12   6     0.15   0.03  -0.09    -0.35   0.40   0.03     0.01   0.01  -0.01
  13   8    -0.02  -0.01   0.01     0.03  -0.05   0.00    -0.00  -0.00   0.00
  14   6    -0.05   0.03   0.01     0.01   0.00  -0.00     0.06  -0.50  -0.00
  15   6     0.12  -0.05  -0.02    -0.03   0.00   0.01    -0.07   0.46   0.01
  16   8    -0.01   0.01   0.00     0.00   0.00  -0.00    -0.02  -0.09   0.00
  17   6    -0.10  -0.02   0.02     0.04   0.01  -0.01    -0.22  -0.31   0.04
  18   6     0.08  -0.03  -0.01    -0.03  -0.00   0.00     0.11   0.45  -0.02
  19   8    -0.01   0.00   0.00     0.00  -0.00  -0.00    -0.04  -0.04   0.01
  20   6    -0.10   0.06   0.02     0.03  -0.01  -0.01     0.02  -0.23  -0.00
  21   8     0.01  -0.00  -0.00    -0.00  -0.00   0.00     0.00   0.03   0.00
  22   1     0.09   0.02  -0.05     0.06   0.02  -0.03    -0.01  -0.00   0.00
  23   1     0.00   0.01  -0.01    -0.01  -0.10   0.04     0.00  -0.00   0.00
  24   1    -0.14  -0.06   0.09     0.01   0.05  -0.02    -0.00  -0.00   0.00
  25   1     0.02   0.03  -0.07     0.01  -0.00  -0.02     0.00   0.00  -0.00
  26   1     0.05   0.06  -0.00     0.01   0.01  -0.00     0.00   0.00  -0.00
  27   1    -0.04  -0.02   0.03    -0.05  -0.01   0.04    -0.00  -0.00   0.00
  28   1     0.02   0.03  -0.02    -0.07  -0.09   0.07     0.00   0.00  -0.00
  29   1    -0.01  -0.00   0.00     0.00  -0.00  -0.00     0.04   0.11  -0.01
  30   1    -0.01  -0.03   0.00     0.00   0.01   0.00     0.01   0.05  -0.00
  31   1     0.02   0.02  -0.00    -0.01  -0.01   0.00     0.12   0.01  -0.02
  32   1    -0.01  -0.00   0.00     0.00   0.00  -0.00     0.08   0.03  -0.01
  33   1    -0.02  -0.02  -0.00     0.01   0.01  -0.00     0.02   0.02  -0.00
                     82                     83                     84
                        a                      a                      a 
 Frequencies --  3013.6763              3014.4194              3032.1698
 Red. masses --     1.9097                 1.9100                 1.5005
 Frc consts  --     0.0000                 0.0000                 0.0000
 IR Inten    --    28.3234               152.8590                44.2144
 Raman Activ --     0.0000                 0.0000                 0.0000
 Depolar     --     0.0000                 0.0000                 0.0000
 Atom AN      X      Y      Z        X      Y      Z        X      Y      Z
   1   6    -0.00   0.00   0.00     0.01  -0.00  -0.00     0.00  -0.00  -0.00
   2   7     0.00  -0.00   0.00    -0.00   0.01  -0.01     0.00   0.00  -0.00
   3   7     0.00  -0.00   0.00    -0.00   0.01  -0.00    -0.00   0.00   0.00
   4   6    -0.00   0.00  -0.00     0.00  -0.01   0.00     0.00  -0.00  -0.00
   5   6    -0.01   0.00   0.00     0.03  -0.01  -0.01    -0.00   0.00   0.00
   6   8    -0.01   0.04  -0.01     0.08  -0.22   0.03     0.00  -0.00   0.00
   7   6     0.00  -0.00   0.00    -0.01   0.00   0.00     0.00  -0.00  -0.00
   8   8    -0.00   0.00   0.00     0.00   0.00  -0.00    -0.00   0.00  -0.00
   9   6    -0.00  -0.00   0.00     0.00   0.00  -0.00    -0.00  -0.00   0.00
  10   6     0.00  -0.00  -0.01     0.00  -0.00   0.00     0.01   0.00  -0.00
  11   6    -0.10  -0.06  -0.25    -0.02  -0.01  -0.05     0.11   0.18  -0.05
  12   6     0.00   0.00   0.00    -0.00   0.00   0.00    -0.00   0.00  -0.00
  13   8     0.00  -0.00   0.00    -0.00   0.00   0.00    -0.00   0.00   0.00
  14   6    -0.00  -0.00  -0.00     0.00   0.00  -0.00    -0.00   0.00  -0.00
  15   6    -0.00   0.00  -0.00     0.00  -0.00   0.00     0.00  -0.00  -0.00
  16   8    -0.00  -0.00   0.00     0.00   0.00  -0.00    -0.00  -0.00   0.00
  17   6     0.00  -0.00  -0.00    -0.00   0.00   0.00    -0.00  -0.00   0.00
  18   6    -0.00   0.00   0.00     0.00  -0.00  -0.00    -0.00   0.00   0.00
  19   8     0.00   0.00  -0.00    -0.00  -0.00   0.00     0.00   0.00  -0.00
  20   6    -0.00   0.00  -0.00     0.00  -0.00   0.00    -0.00  -0.00   0.00
  21   8     0.00  -0.00   0.00    -0.00   0.00  -0.00     0.00   0.00  -0.00
  22   1     0.08  -0.17   0.01    -0.38   0.87  -0.05    -0.01   0.01  -0.00
  23   1     0.00  -0.00  -0.00    -0.01  -0.00   0.00     0.00  -0.00   0.00
  24   1    -0.00   0.00  -0.00     0.00  -0.01   0.00    -0.00   0.00   0.00
  25   1     0.27   0.37   0.14     0.06   0.08   0.03    -0.47  -0.62  -0.31
  26   1     0.09  -0.12   0.80     0.02  -0.02   0.15     0.08  -0.04   0.50
  27   1    -0.01  -0.02  -0.03    -0.00  -0.01  -0.01     0.00   0.04  -0.01
  28   1    -0.00   0.00  -0.00     0.01  -0.01   0.00     0.01  -0.01  -0.00
  29   1     0.00  -0.00  -0.00    -0.01   0.00   0.00     0.00  -0.00  -0.00
  30   1    -0.00   0.00  -0.00     0.00  -0.00  -0.00    -0.00   0.00   0.00
  31   1    -0.00   0.00   0.00     0.00  -0.00  -0.00    -0.00   0.00   0.00
  32   1    -0.00  -0.00  -0.00     0.00   0.00   0.00    -0.00  -0.00   0.00
  33   1    -0.00  -0.00  -0.00     0.01   0.00   0.00     0.00  -0.00   0.00
                     85                     86                     87
                        a                      a                      a 
 Frequencies --  3058.8009              3088.9749              3096.7019
 Red. masses --     1.7355                 1.8248                 1.8304
 Frc consts  --     0.0000                 0.0000                 0.0000
 IR Inten    --    50.5286                10.9220                 9.9933
 Raman Activ --     0.0000                 0.0000                 0.0000
 Depolar     --     0.0000                 0.0000                 0.0000
 Atom AN      X      Y      Z        X      Y      Z        X      Y      Z
   1   6    -0.00   0.00  -0.00    -0.01   0.01   0.00    -0.00   0.00   0.00
   2   7     0.00  -0.00   0.00    -0.00   0.00   0.00    -0.00   0.00   0.00
   3   7     0.00  -0.00   0.00     0.00   0.00  -0.00     0.00   0.00  -0.00
   4   6     0.00   0.00  -0.00     0.00  -0.00  -0.00     0.00   0.00   0.00
   5   6     0.00  -0.00  -0.00     0.00   0.00  -0.00     0.00  -0.00  -0.00
   6   8    -0.00   0.00   0.00     0.00  -0.00   0.00     0.00  -0.00   0.00
   7   6    -0.00   0.00   0.00     0.00   0.00  -0.00    -0.00   0.00  -0.00
   8   8     0.00  -0.00   0.00     0.00  -0.00   0.00    -0.00  -0.00   0.00
   9   6     0.01  -0.01   0.00    -0.00   0.00   0.00     0.00  -0.00   0.00
  10   6    -0.00   0.01  -0.00    -0.00   0.00   0.00    -0.00  -0.00   0.00
  11   6    -0.11   0.23  -0.04    -0.00  -0.00  -0.00    -0.00   0.00  -0.00
  12   6     0.00   0.00  -0.00    -0.00  -0.00   0.00    -0.00   0.00  -0.00
  13   8    -0.00  -0.00   0.00     0.00  -0.00  -0.00    -0.00   0.00   0.00
  14   6    -0.00  -0.00   0.00    -0.27   0.02   0.04    -0.03   0.00   0.00
  15   6    -0.00  -0.00   0.00    -0.01  -0.01   0.00    -0.00  -0.01   0.00
  16   8     0.00   0.00  -0.00     0.00   0.00  -0.00    -0.00   0.00   0.00
  17   6    -0.00   0.00   0.00    -0.01   0.03   0.00     0.12  -0.24  -0.02
  18   6     0.00  -0.00  -0.00    -0.00   0.00   0.00     0.01  -0.00  -0.00
  19   8    -0.00  -0.00   0.00     0.00   0.00  -0.00    -0.00   0.00   0.00
  20   6     0.00   0.00  -0.00     0.00  -0.00  -0.00    -0.00   0.00   0.00
  21   8    -0.00  -0.00   0.00    -0.00   0.00   0.00     0.00  -0.00  -0.00
  22   1     0.00  -0.00  -0.00    -0.00   0.01  -0.00    -0.00   0.01  -0.00
  23   1    -0.00   0.00  -0.00    -0.00   0.00   0.00    -0.00   0.00   0.00
  24   1    -0.02   0.03  -0.00     0.00  -0.00   0.00    -0.00   0.00  -0.00
  25   1    -0.03   0.01  -0.02     0.00   0.00   0.00     0.00   0.00   0.00
  26   1    -0.01   0.03  -0.01     0.00  -0.00   0.00    -0.00   0.00  -0.00
  27   1     0.44  -0.84   0.17    -0.00   0.00  -0.00     0.00  -0.00   0.00
  28   1    -0.00   0.00   0.00    -0.00   0.00   0.00     0.00  -0.00   0.00
  29   1     0.00  -0.00  -0.00     0.94  -0.05  -0.15     0.10  -0.01  -0.02
  30   1     0.00  -0.00  -0.00     0.00   0.00  -0.00     0.01  -0.00  -0.00
  31   1     0.00  -0.00  -0.00     0.04  -0.09  -0.01    -0.43   0.85   0.06
  32   1     0.00   0.00  -0.00     0.00  -0.00  -0.00    -0.01   0.00   0.00
  33   1     0.00   0.00  -0.00     0.00  -0.00  -0.00     0.00  -0.00  -0.00
                     88                     89                     90
                        a                      a                      a 
 Frequencies --  3112.1192              3351.6331              3436.2822
 Red. masses --     1.8298                 1.8611                 1.8580
 Frc consts  --     0.0000                 0.0000                 0.0000
 IR Inten    --     5.3975                30.0287                11.5898
 Raman Activ --     0.0000                 0.0000                 0.0000
 Depolar     --     0.0000                 0.0000                 0.0000
 Atom AN      X      Y      Z        X      Y      Z        X      Y      Z
   1   6     0.00  -0.00   0.00    -0.00   0.00   0.00    -0.00   0.00  -0.00
   2   7     0.00  -0.00  -0.00     0.00   0.00  -0.00     0.00  -0.00   0.00
   3   7    -0.00  -0.00   0.00     0.01  -0.00  -0.00    -0.00   0.00  -0.00
   4   6     0.00  -0.00   0.00    -0.00   0.00   0.00    -0.00   0.00   0.00
   5   6     0.00  -0.00   0.00     0.00  -0.00  -0.00    -0.00  -0.00   0.00
   6   8    -0.00   0.00  -0.00    -0.00   0.00  -0.00     0.00   0.00  -0.00
   7   6     0.00   0.01  -0.00    -0.00   0.00  -0.00     0.00  -0.00  -0.00
   8   8     0.00  -0.00  -0.00     0.00  -0.00  -0.00    -0.00   0.00   0.00
   9   6    -0.14   0.23  -0.01     0.00   0.00  -0.00    -0.00   0.00   0.00
  10   6    -0.01   0.00   0.00     0.00  -0.00   0.00    -0.00   0.00  -0.00
  11   6    -0.00   0.01  -0.00    -0.00  -0.00   0.00     0.00   0.00  -0.00
  12   6     0.00  -0.00  -0.00     0.00   0.02  -0.01     0.00   0.00  -0.00
  13   8     0.00  -0.00  -0.00    -0.17   0.16   0.03     0.00  -0.00  -0.00
  14   6     0.00   0.00  -0.00    -0.00  -0.00  -0.00     0.00  -0.00   0.00
  15   6    -0.00  -0.00   0.00    -0.00   0.00   0.00    -0.00   0.00   0.00
  16   8     0.00   0.00   0.00    -0.00  -0.00  -0.00     0.00  -0.00  -0.00
  17   6     0.00  -0.00  -0.00     0.00   0.00  -0.00     0.00   0.00  -0.00
  18   6     0.00   0.00  -0.00    -0.00  -0.00   0.00    -0.00  -0.00  -0.00
  19   8    -0.00   0.00   0.00     0.00   0.00  -0.00     0.00   0.00  -0.00
  20   6    -0.00  -0.00   0.00     0.00   0.00   0.00     0.00   0.01  -0.00
  21   8     0.00  -0.00  -0.00    -0.00   0.00   0.00    -0.15   0.18   0.03
  22   1     0.00  -0.01   0.00     0.00  -0.01   0.00    -0.00  -0.01  -0.00
  23   1    -0.00   0.00   0.00    -0.00   0.00   0.00     0.00  -0.00  -0.00
  24   1     0.51  -0.81   0.04     0.00  -0.00  -0.00     0.00  -0.00  -0.00
  25   1    -0.00  -0.00  -0.00     0.00   0.00   0.00    -0.00  -0.00  -0.00
  26   1    -0.00   0.00   0.00    -0.00   0.00  -0.01    -0.00  -0.00   0.00
  27   1     0.02  -0.03   0.01     0.00  -0.00   0.00    -0.00   0.00  -0.00
  28   1    -0.00   0.00   0.00     0.66  -0.71  -0.09    -0.00   0.00   0.00
  29   1     0.00  -0.00  -0.00     0.00   0.00   0.00    -0.00  -0.00   0.00
  30   1    -0.00  -0.00  -0.00     0.00   0.00   0.00    -0.00   0.00   0.00
  31   1    -0.00   0.00   0.00     0.00  -0.00  -0.00     0.00   0.00   0.00
  32   1     0.00  -0.00   0.00    -0.00  -0.00   0.00     0.00  -0.01  -0.00
  33   1    -0.00   0.00   0.00     0.00  -0.00  -0.00     0.57  -0.77  -0.12
                     91                     92                     93
                        a                      a                      a 
 Frequencies --  3484.0877              3518.5868              3528.3071
 Red. masses --     1.8655                 1.8643                 1.8641
 Frc consts  --     0.0000                 0.0000                 0.0000
 IR Inten    --    55.5893                61.5075                 9.3883
 Raman Activ --     0.0000                 0.0000                 0.0000
 Depolar     --     0.0000                 0.0000                 0.0000
 Atom AN      X      Y      Z        X      Y      Z        X      Y      Z
   1   6     0.00  -0.00  -0.00     0.00  -0.00  -0.00    -0.00  -0.00   0.00
   2   7     0.00   0.00  -0.00     0.00  -0.00  -0.00     0.00   0.00  -0.00
   3   7    -0.00  -0.00   0.00     0.00  -0.00  -0.00    -0.00  -0.00   0.00
   4   6     0.00   0.00  -0.00    -0.00   0.00  -0.00    -0.00   0.00  -0.00
   5   6    -0.00  -0.00   0.00    -0.00  -0.00   0.00    -0.00  -0.00   0.00
   6   8     0.00   0.00  -0.00     0.00   0.00  -0.00    -0.00   0.00  -0.00
   7   6     0.01   0.00  -0.01    -0.00   0.00   0.00    -0.00   0.00   0.00
   8   8     0.21  -0.05  -0.09    -0.00   0.00   0.00    -0.00   0.00   0.00
   9   6    -0.00  -0.00   0.00     0.00   0.00  -0.00     0.00   0.00  -0.00
  10   6     0.00  -0.00   0.00     0.00  -0.00   0.00     0.00  -0.00  -0.00
  11   6     0.00  -0.00  -0.00    -0.00  -0.00  -0.00     0.00   0.00   0.00
  12   6    -0.00   0.00  -0.00     0.00   0.00  -0.00     0.00   0.00  -0.00
  13   8     0.00  -0.00   0.00    -0.00  -0.00   0.00    -0.00  -0.00   0.00
  14   6     0.00   0.00  -0.00    -0.00  -0.00   0.00     0.00   0.00  -0.00
  15   6     0.00   0.00  -0.00     0.00   0.00  -0.00    -0.01  -0.00   0.00
  16   8    -0.00  -0.00   0.00    -0.00  -0.00   0.00    -0.23   0.04   0.04
  17   6    -0.00   0.00   0.00    -0.00   0.00   0.00     0.00   0.00  -0.00
  18   6    -0.00   0.00   0.00     0.01  -0.01  -0.00    -0.00   0.00   0.00
  19   8     0.00  -0.00  -0.00     0.08  -0.23  -0.01     0.00  -0.00  -0.00
  20   6    -0.00  -0.00   0.00    -0.00   0.00   0.00     0.00  -0.00  -0.00
  21   8    -0.00   0.00   0.00    -0.00   0.00   0.00    -0.00   0.00   0.00
  22   1     0.00  -0.01   0.00    -0.00  -0.00   0.00     0.00  -0.00   0.00
  23   1    -0.87   0.19   0.38     0.00  -0.00  -0.00     0.00  -0.00  -0.00
  24   1    -0.00   0.00   0.00     0.00  -0.00  -0.00     0.00  -0.00   0.00
  25   1     0.00  -0.00  -0.00    -0.00   0.00  -0.00    -0.00  -0.00  -0.00
  26   1     0.00   0.00   0.00    -0.00   0.00   0.00    -0.00   0.00   0.00
  27   1    -0.00   0.00  -0.00    -0.00   0.00  -0.00    -0.00   0.00  -0.00
  28   1    -0.00   0.00   0.00     0.00   0.00  -0.00    -0.00   0.00   0.00
  29   1    -0.00  -0.00   0.00     0.00  -0.00  -0.00    -0.00  -0.00   0.00
  30   1     0.00  -0.00  -0.00     0.00  -0.00  -0.00     0.95  -0.14  -0.16
  31   1     0.00  -0.00   0.00     0.00  -0.00  -0.00     0.00  -0.00  -0.00
  32   1    -0.00   0.00   0.00    -0.33   0.91   0.05     0.00  -0.00  -0.00
  33   1     0.00  -0.00  -0.00     0.01  -0.01  -0.00     0.00  -0.00  -0.00
